/*--------------------------------*- C++ -*----------------------------------*\
| =========                 |                                                 |
| \\      /  F ield         | OpenFOAM: The Open Source CFD Toolbox           |
|  \\    /   O peration     | Version:  2.1.x                                 |
|   \\  /    A nd           | Web:      www.OpenFOAM.org                      |
|    \\/     M anipulation  |                                                 |
\*---------------------------------------------------------------------------*/
FoamFile
{
    version     2.0;
    format      ascii;
    class       volScalarField;
    location    "1";
    object      p;
}
// * * * * * * * * * * * * * * * * * * * * * * * * * * * * * * * * * * * * * //

dimensions      [0 2 -2 0 0 0 0];

internalField   nonuniform List<scalar> 
2172
(
-1.333822
-3.105028
-3.491753
-2.938945
-2.797621
-2.912895
-2.691514
-2.680104
0.6560618
-0.7804761
-1.736247
-2.191781
-2.6189
-2.740389
-2.682511
-2.667327
0.6928451
-0.2960331
-1.175142
-1.802659
-2.329782
-2.607483
-2.66468
-2.714787
0.8046018
0.05491423
-0.7180106
-1.40918
-1.97648
-2.388538
-2.605816
-2.721887
0.8304086
0.2803951
-0.3685248
-1.048969
-1.612767
-2.093
-2.422015
-2.616127
0.8436057
0.4188014
-0.1248436
-0.7736726
-1.310288
-1.788596
-2.14592
-2.396599
0.8582399
0.5074768
0.03633421
-0.5690731
-1.077574
-1.535193
-1.878315
-2.149961
0.8687313
0.5634592
0.1391436
-0.4119654
-0.9025652
-1.34082
-1.66918
-1.936132
0.8729942
0.5974341
0.2077874
-0.2881825
-0.7704341
-1.194732
-1.518025
-1.759646
0.8742432
0.6165998
0.2593721
-0.190255
-0.6715524
-1.086896
-1.415434
-1.616143
0.8725894
0.6281956
0.3025809
-0.113966
-0.5977759
-1.009515
-1.329025
-1.497853
0.8706675
0.6401528
0.3400253
-0.05562565
-0.5426826
-0.9564081
-1.269105
-1.418053
0.8666049
0.6564374
0.3723135
-0.01111256
-0.5036207
-0.9235013
-1.222307
-1.352783
0.8640746
0.6768218
0.4006345
0.02178673
-0.4804015
-0.909201
-1.204936
-1.325148
0.8640267
0.6990595
0.4240695
0.04291145
-0.4745345
-0.908165
-1.191774
-1.295327
0.8577156
0.7296455
0.455393
0.0591794
-0.4851805
-0.9410511
-1.216317
-1.298156
0.8250101
0.8481269
0.8800818
0.9103696
0.940667
0.9750891
1.016501
1.068429
1.134588
1.221997
1.336493
1.486567
1.665745
1.839168
1.891844
0.9809777
1.146944
1.168888
1.210085
1.264338
1.329395
1.407479
1.503151
1.623003
1.773424
1.962678
2.193383
2.465327
2.762714
3.050505
3.18891
2.958184
1.622344
1.648928
1.696479
1.765889
1.858468
1.976009
2.122103
2.301076
2.518923
2.780629
3.090076
3.442978
3.820895
4.175303
4.45816
4.695158
2.041858
2.055556
2.088946
2.153414
2.251733
2.381558
2.541919
2.73335
2.96119
3.23065
3.552123
3.933852
4.397813
4.970149
5.708392
6.625962
1.985862
2.003695
2.041569
2.109439
2.209656
2.34037
2.500896
2.692229
2.919464
3.188238
3.508908
3.892164
4.363063
4.956287
5.74054
6.733125
1.497568
1.530621
1.585552
1.661306
1.758388
1.878837
2.026641
2.206632
2.425015
2.686619
2.995611
3.346673
3.727777
4.095827
4.450751
4.829031
1.009505
1.034802
1.080587
1.139357
1.208345
1.289786
1.388849
1.511967
1.665865
1.858822
2.094783
2.373549
2.680391
2.979537
3.132457
2.968272
0.6886643
0.7157441
0.7523821
0.7858846
0.8181181
0.8538984
0.8974321
0.9520666
1.022312
1.115218
1.236471
1.398145
1.595135
1.794559
1.866304
0.94278
0.9931577
0.8595788
0.5584971
0.108072
-0.5131294
-1.00931
-1.286763
-1.34804
0.9987672
0.8266305
0.5237033
0.09002753
-0.5007747
-0.9740039
-1.264082
-1.351304
0.9976456
0.8021733
0.497309
0.06683774
-0.5059624
-0.9740477
-1.276318
-1.382093
1.000096
0.7793935
0.4656621
0.03151314
-0.5283989
-0.9862906
-1.294238
-1.409729
1.001415
0.7601667
0.4291966
-0.01587645
-0.5662116
-1.016514
-1.339616
-1.478203
1.001655
0.744597
0.3867273
-0.0780975
-0.6201218
-1.067127
-1.396291
-1.556466
1.000466
0.7282683
0.3378997
-0.1598293
-0.6935756
-1.143423
-1.477644
-1.670472
0.9970443
0.7044324
0.279861
-0.2648341
-0.7932873
-1.251628
-1.580446
-1.811102
0.9892413
0.6667311
0.2027121
-0.3961868
-0.9275516
-1.397194
-1.72947
-1.982307
0.9752072
0.608128
0.09007463
-0.5600536
-1.106973
-1.589485
-1.934673
-2.188275
0.9544491
0.5138298
-0.08110647
-0.7728001
-1.347432
-1.838817
-2.187141
-2.418973
0.9303882
0.3613691
-0.3362355
-1.061654
-1.660627
-2.130255
-2.425435
-2.600944
0.8909789
0.1170537
-0.6985312
-1.439932
-2.028899
-2.404676
-2.572431
-2.671988
0.7674036
-0.2530579
-1.165673
-1.851374
-2.376804
-2.602659
-2.625925
-2.652779
0.6686773
-0.7622845
-1.738955
-2.264804
-2.659069
-2.710782
-2.646454
-2.628004
-1.280298
-3.014647
-3.416632
-2.949204
-2.834032
-2.840828
-2.654467
-2.628284
-2.680633
-2.674741
-2.669219
-2.660035
-2.646405
-2.627994
-2.603991
-2.573171
-2.533819
-2.483673
-2.420368
-2.342127
-2.24763
-2.135493
-2.005271
-1.859141
-1.700864
-1.534793
-1.367012
-1.203489
-1.051201
-0.9148335
-0.7994338
-0.7092592
-2.675702
-2.672682
-2.664307
-2.649965
-2.632296
-2.610802
-2.583997
-2.549883
-2.50639
-2.451159
-2.382368
-2.299364
-2.200694
-2.086133
-1.957119
-1.81471
-1.662352
-1.503636
-1.343834
-1.18952
-1.046176
-0.9181703
-0.8087566
-0.7208956
-2.697073
-2.678052
-2.660383
-2.64225
-2.623304
-2.600988
-2.573063
-2.53805
-2.494261
-2.439021
-2.369488
-2.283325
-2.181521
-2.064318
-1.933502
-1.791048
-1.641006
-1.486993
-1.334355
-1.188516
-1.053002
-0.9334041
-0.8293226
-0.7438817
-2.655337
-2.662823
-2.656416
-2.639297
-2.619254
-2.595038
-2.563311
-2.521168
-2.468118
-2.403541
-2.326315
-2.235281
-2.130622
-2.012897
-1.883923
-1.746421
-1.603657
-1.459912
-1.31897
-1.185666
-1.062555
-0.9534244
-0.858291
-0.7780204
-2.606893
-2.605153
-2.601332
-2.586636
-2.561058
-2.528818
-2.490242
-2.443248
-2.386015
-2.317442
-2.236919
-2.144294
-2.040146
-1.925845
-1.803447
-1.675711
-1.545675
-1.416789
-1.29228
-1.175269
-1.068188
-0.972578
-0.8893256
-0.8177917
-2.483133
-2.481848
-2.456825
-2.428999
-2.401413
-2.371162
-2.334811
-2.289501
-2.233345
-2.165656
-2.08678
-1.997713
-1.900004
-1.795466
-1.686344
-1.574882
-1.463699
-1.355048
-1.251434
-1.154528
-1.066135
-0.98674
-0.9170299
-0.8561876
-2.297953
-2.297381
-2.244587
-2.196774
-2.164066
-2.139432
-2.11251
-2.076196
-2.027693
-1.967201
-1.896563
-1.818019
-1.733834
-1.645891
-1.556056
-1.465874
-1.377094
-1.291069
-1.209371
-1.13292
-1.062806
-0.9992374
-0.9426222
-0.8924721
-2.091744
-2.086445
-2.016822
-1.955927
-1.921729
-1.904983
-1.889502
-1.864474
-1.826351
-1.776209
-1.717107
-1.652148
-1.583834
-1.513835
-1.443431
-1.373524
-1.305093
-1.238898
-1.175856
-1.116511
-1.061505
-1.01097
-0.9651715
-0.9238069
-1.911647
-1.894863
-1.820205
-1.763939
-1.734989
-1.722164
-1.710873
-1.691436
-1.6606
-1.619509
-1.571272
-1.518991
-1.464952
-1.410462
-1.356264
-1.302748
-1.250352
-1.199447
-1.15057
-1.104076
-1.060413
-1.019706
-0.9821694
-0.9476251
-1.623151
-1.630461
-1.636122
-1.622649
-1.604427
-1.589316
-1.574836
-1.55565
-1.528963
-1.495157
-1.456392
-1.415033
-1.372809
-1.330627
-1.28887
-1.24765
-1.207133
-1.167508
-1.129125
-1.092244
-1.05719
-1.024084
-0.9931106
-0.964217
-1.583116
-1.570859
-1.532901
-1.507821
-1.49263
-1.479655
-1.46483
-1.446221
-1.423024
-1.395594
-1.365156
-1.333126
-1.300583
-1.268083
-1.235826
-1.203838
-1.172196
-1.141029
-1.110589
-1.081098
-1.052824
-1.025894
-1.000472
-0.9765534
-1.38869
-1.399687
-1.420047
-1.420845
-1.409875
-1.395357
-1.379561
-1.362023
-1.342173
-1.32008
-1.296309
-1.271553
-1.246361
-1.221037
-1.195703
-1.1704
-1.145214
-1.120272
-1.095783
-1.071933
-1.048934
-1.026897
-1.005962
-0.9861267
-1.403887
-1.391815
-1.365402
-1.348811
-1.33734
-1.325438
-1.311683
-1.296359
-1.279797
-1.262169
-1.243656
-1.224478
-1.20484
-1.184883
-1.164698
-1.14436
-1.123983
-1.103705
-1.083708
-1.064147
-1.045177
-1.026862
-1.009274
-0.9923594
-1.287305
-1.291481
-1.300583
-1.298001
-1.288051
-1.275804
-1.263093
-1.250111
-1.236695
-1.222717
-1.20813
-1.192947
-1.177213
-1.16099
-1.144361
-1.127431
-1.110337
-1.093231
-1.07628
-1.059614
-1.043353
-1.027534
-1.012213
-0.997325
-1.291461
-1.284
-1.274477
-1.265264
-1.255542
-1.245282
-1.234845
-1.224293
-1.213436
-1.202049
-1.189985
-1.177177
-1.163626
-1.149389
-1.134577
-1.119348
-1.103883
-1.088369
-1.072972
-1.05782
-1.043013
-1.0286
-1.014626
-1.000992
-1.267867
-1.259239
-1.250761
-1.242825
-1.235063
-1.227171
-1.218986
-1.210384
-1.201239
-1.191432
-1.180875
-1.169525
-1.157391
-1.14453
-1.131049
-1.117086
-1.102797
-1.088341
-1.073865
-1.059498
-1.045345
-1.031479
-1.017936
-1.004641
-1.304119
-1.292564
-1.281334
-1.270582
-1.259896
-1.248996
-1.237744
-1.226036
-1.213778
-1.200909
-1.187407
-1.173298
-1.158656
-1.143588
-1.128232
-1.112737
-1.097248
-1.081891
-1.066761
-1.051926
-1.037427
-1.023276
-1.009457
-0.9958599
-1.331039
-1.320183
-1.307722
-1.295368
-1.282475
-1.269104
-1.255529
-1.241761
-1.227641
-1.213031
-1.197879
-1.182215
-1.166118
-1.149701
-1.133097
-1.116449
-1.099905
-1.083596
-1.067618
-1.052025
-1.03684
-1.022045
-1.00763
-0.9934664
-1.335035
-1.334216
-1.336538
-1.328728
-1.315043
-1.299659
-1.283873
-1.267736
-1.251097
-1.233897
-1.216189
-1.198097
-1.179753
-1.161274
-1.142753
-1.124277
-1.105952
-1.087889
-1.070202
-1.052967
-1.036244
-1.02002
-1.004305
-0.9889934
-1.444539
-1.4287
-1.399871
-1.379993
-1.364599
-1.34892
-1.33178
-1.313249
-1.293433
-1.272461
-1.250615
-1.228273
-1.205776
-1.183346
-1.161099
-1.139099
-1.117423
-1.096168
-1.07547
-1.055434
-1.036165
-1.017668
-0.9999785
-0.9829727
-1.441076
-1.446382
-1.457775
-1.450826
-1.434339
-1.415837
-1.396797
-1.376183
-1.353109
-1.327602
-1.300366
-1.272289
-1.244079
-1.216137
-1.188624
-1.161587
-1.135088
-1.109218
-1.084146
-1.059998
-1.036946
-1.015009
-0.9942895
-0.9746488
-1.626227
-1.608874
-1.566393
-1.535416
-1.51396
-1.496024
-1.477513
-1.455598
-1.428965
-1.39796
-1.363991
-1.328657
-1.293138
-1.258057
-1.223654
-1.189985
-1.157141
-1.125229
-1.094473
-1.06501
-1.037074
-1.010658
-0.9859269
-0.9626867
-1.683393
-1.685915
-1.675497
-1.648001
-1.621424
-1.601139
-1.582215
-1.558508
-1.52731
-1.489296
-1.446784
-1.402161
-1.357107
-1.312519
-1.268808
-1.226144
-1.184741
-1.144777
-1.106586
-1.070303
-1.036237
-1.004292
-0.9746928
-0.9470701
-1.939192
-1.91676
-1.843057
-1.78566
-1.752578
-1.733393
-1.714678
-1.687904
-1.650552
-1.604086
-1.55153
-1.495767
-1.438857
-1.382027
-1.326043
-1.271368
-1.218531
-1.167874
-1.119947
-1.074894
-1.033178
-0.994563
-0.959381
-0.9269392
-2.118984
-2.106059
-2.033978
-1.972361
-1.935003
-1.911384
-1.886757
-1.852394
-1.806043
-1.749289
-1.68503
-1.616073
-1.544613
-1.472231
-1.400225
-1.329573
-1.261366
-1.19629
-1.135307
-1.078625
-1.026954
-0.9798663
-0.937877
-0.8998711
-2.30841
-2.299651
-2.248756
-2.201689
-2.165578
-2.133573
-2.097027
-2.050772
-1.993209
-1.92517
-1.848447
-1.765179
-1.677373
-1.58695
-1.495752
-1.405465
-1.317869
-1.234268
-1.156213
-1.084229
-1.019422
-0.9612599
-0.9104576
-0.8653974
-2.473022
-2.463868
-2.438339
-2.410619
-2.379974
-2.343465
-2.298827
-2.244542
-2.179725
-2.104316
-2.018772
-1.924297
-1.822414
-1.715268
-1.60504
-1.494303
-1.385473
-1.280977
-1.182967
-1.092995
-1.012398
-0.9411441
-0.8796767
-0.8262824
-2.577509
-2.56959
-2.559392
-2.54104
-2.513727
-2.478043
-2.43356
-2.379264
-2.314584
-2.238766
-2.151447
-2.052735
-1.943755
-1.826221
-1.702588
-1.5758
-1.448905
-1.325543
-1.208397
-1.100857
-1.004061
-0.9199164
-0.847485
-0.7863792
-2.620025
-2.62288
-2.60904
-2.588029
-2.563906
-2.534356
-2.496423
-2.447537
-2.387862
-2.316399
-2.232208
-2.134538
-2.024398
-1.902454
-1.771755
-1.634513
-1.495113
-1.357048
-1.224801
-1.102219
-0.9915947
-0.8966137
-0.8148771
-0.7484264
-2.638292
-2.625086
-2.611304
-2.593926
-2.573233
-2.546973
-2.513369
-2.471828
-2.420405
-2.35651
-2.277745
-2.183497
-2.07474
-1.952133
-1.818284
-1.675058
-1.52773
-1.378753
-1.235699
-1.100489
-0.9795389
-0.8751961
-0.7876179
-0.7183922
-2.630231
-2.623396
-2.614269
-2.600029
-2.581381
-2.557177
-2.525865
-2.485756
-2.435074
-2.371888
-2.295352
-2.204303
-2.098151
-1.977941
-1.844849
-1.700689
-1.549628
-1.395093
-1.244459
-1.100862
-0.9724745
-0.859978
-0.7695635
-0.6991686
-2.634624
-2.627777
-2.621467
-2.611621
-2.596922
-2.576561
-2.549381
-2.513994
-2.468637
-2.411237
-2.340004
-2.253698
-2.151293
-2.031468
-1.895715
-1.74676
-1.588849
-1.426603
-1.266727
-1.114207
-0.9767215
-0.8567376
-0.7609037
-0.6900295
-0.6301888
-0.5547281
-0.481467
-0.4106067
-0.3476922
-0.3035145
-0.2801059
-0.2814825
-0.302896
-0.3291745
-0.3733749
-0.4009884
-0.4297147
-0.4537297
-0.4521838
-0.4645702
-0.4523764
-0.4284734
-0.4066933
-0.3563626
-0.2864958
-0.2109925
-0.1392901
-0.07811904
-0.03300181
-0.01416045
-0.005040795
0.01192734
0.02489198
0.01771178
-0.6402435
-0.5660869
-0.4929056
-0.4244001
-0.3650579
-0.3213285
-0.2996007
-0.298925
-0.3210646
-0.3444352
-0.3864158
-0.4126664
-0.4373598
-0.4609372
-0.456787
-0.4677886
-0.4558946
-0.4305339
-0.4088301
-0.358555
-0.2884068
-0.2109845
-0.1382457
-0.07768316
-0.03296805
-0.01357361
-0.004435702
0.01197405
0.02463306
0.01765294
-0.6641476
-0.5899768
-0.5194726
-0.454222
-0.3998481
-0.3584249
-0.3385052
-0.3353022
-0.3552143
-0.3750496
-0.4106274
-0.4339604
-0.4528734
-0.4721794
-0.4664002
-0.4729911
-0.4611385
-0.4370236
-0.4131759
-0.3631788
-0.2921736
-0.2099926
-0.1364353
-0.07763106
-0.03280856
-0.01238953
-0.003428439
0.01236494
0.02460496
0.01761363
-0.7018617
-0.6290121
-0.5631163
-0.5028962
-0.4538712
-0.4163092
-0.3970136
-0.3914705
-0.4051616
-0.4205716
-0.4459719
-0.4639729
-0.4760734
-0.4869829
-0.4808036
-0.4799549
-0.468121
-0.4482769
-0.4191375
-0.3705275
-0.2982641
-0.2077837
-0.1335763
-0.07809423
-0.03267371
-0.01039091
-0.001507581
0.01329569
0.02490802
0.01760057
-0.7481529
-0.6797506
-0.6193937
-0.5656122
-0.5215151
-0.4879106
-0.4675196
-0.4594171
-0.4640087
-0.4736203
-0.4872698
-0.4976852
-0.5028863
-0.5032517
-0.4970626
-0.4877382
-0.4759833
-0.4608091
-0.4258932
-0.3800414
-0.3057911
-0.204406
-0.1298337
-0.07901274
-0.03254867
-0.007550112
0.001235775
0.01476322
0.02550177
0.01761646
-0.7950894
-0.7335524
-0.6790901
-0.6313938
-0.5912021
-0.5601257
-0.5376193
-0.5260904
-0.5216725
-0.5244099
-0.5273856
-0.5295437
-0.5281658
-0.518824
-0.5118279
-0.4953213
-0.4837515
-0.472579
-0.4328634
-0.3899076
-0.3130897
-0.2004027
-0.1257756
-0.08005628
-0.03224711
-0.004075503
0.004534258
0.01654062
0.02623481
0.01766229
-0.8397176
-0.784666
-0.7352243
-0.6918879
-0.6542394
-0.6240524
-0.5993522
-0.5840376
-0.5724159
-0.5683701
-0.5627207
-0.5573047
-0.5497588
-0.5327669
-0.5238173
-0.502148
-0.4908039
-0.4824521
-0.4396828
-0.3987122
-0.3189264
-0.1965359
-0.1219828
-0.08079152
-0.03159086
-0.0004115533
0.007926338
0.01832653
0.0269595
0.01773817
-0.8778106
-0.82812
-0.7828847
-0.742767
-0.7070415
-0.6771851
-0.6509399
-0.6323343
-0.61546
-0.6054106
-0.5930179
-0.5809975
-0.5678304
-0.5449796
-0.5331889
-0.5081596
-0.4968808
-0.4902725
-0.4461012
-0.4058565
-0.3228899
-0.1933444
-0.1187641
-0.08091674
-0.03055437
0.003000258
0.01100418
0.01991637
0.02760461
0.01783999
-0.9074273
-0.8628218
-0.8216101
-0.7843721
-0.7504875
-0.7210576
-0.6939833
-0.6727906
-0.6520521
-0.6368612
-0.6189633
-0.6012122
-0.5829059
-0.5554356
-0.5403683
-0.513297
-0.5018163
-0.4961172
-0.451782
-0.4111141
-0.325123
-0.1910212
-0.1161651
-0.08032863
-0.02925768
0.005872567
0.0135747
0.02125761
0.02815888
0.01795755
-0.9294981
-0.8899794
-0.8527554
-0.8183085
-0.7862128
-0.7572419
-0.7296396
-0.7062544
-0.6824892
-0.6628783
-0.6404055
-0.6177484
-0.5948573
-0.5638285
-0.5454808
-0.5172864
-0.5054973
-0.4999849
-0.4563238
-0.4144651
-0.3258534
-0.1894902
-0.1141392
-0.07914788
-0.02788334
0.008091165
0.01560849
0.02237042
0.02863232
0.01807265
-0.9466477
-0.9114717
-0.8777154
-0.8456627
-0.8149954
-0.786223
-0.7580349
-0.7326213
-0.7063412
-0.6829279
-0.656686
-0.6300809
-0.6033863
-0.5699416
-0.5486726
-0.5199767
-0.507961
-0.5019539
-0.4594113
-0.4159828
-0.3252811
-0.1885498
-0.1126713
-0.07763928
-0.02659985
0.009679723
0.01716569
0.0232852
0.02902478
0.01816646
-0.9598787
-0.9279288
-0.8967801
-0.8664362
-0.8366169
-0.8076114
-0.7786022
-0.7512194
-0.7228607
-0.696379
-0.6673432
-0.6379659
-0.6084694
-0.5737878
-0.5502391
-0.5216397
-0.5093281
-0.5022404
-0.4609291
-0.4158944
-0.3236769
-0.1879883
-0.111759
-0.07609863
-0.025518
0.01073665
0.01831463
0.0240072
0.02931372
0.01822064
-0.9689484
-0.9393715
-0.9098665
-0.8803736
-0.8507164
-0.8210816
-0.7911091
-0.7619498
-0.7320365
-0.7033888
-0.6727095
-0.6418786
-0.6106172
-0.5760474
-0.550875
-0.522645
-0.5102054
-0.5012876
-0.4610823
-0.4146834
-0.321443
-0.1876449
-0.1113664
-0.07476627
-0.02468853
0.01136048
0.01910079
0.0245276
0.02948267
0.01822767
-0.9754744
-0.9469463
-0.9179417
-0.8883308
-0.8581335
-0.8276739
-0.7969808
-0.7667233
-0.7360031
-0.7061062
-0.6746719
-0.6432996
-0.6113173
-0.5773421
-0.551118
-0.5233798
-0.5107412
-0.4997778
-0.4604095
-0.4129913
-0.3190666
-0.1874145
-0.1113823
-0.07375815
-0.02410488
0.01164822
0.0195697
0.02486007
0.02954731
0.01819761
-0.9799889
-0.9518657
-0.9228789
-0.8928753
-0.8619304
-0.8304991
-0.799033
-0.768076
-0.7370731
-0.706715
-0.6751403
-0.6437263
-0.6113185
-0.5779985
-0.5512355
-0.5239451
-0.5112315
-0.4984729
-0.4595514
-0.4114396
-0.3169779
-0.1871309
-0.1115711
-0.07305554
-0.02367714
0.01175419
0.01982005
0.02506954
0.02956997
0.01816156
-0.9832353
-0.9543853
-0.9247704
-0.8942772
-0.8630652
-0.8314959
-0.7999598
-0.7687821
-0.7376443
-0.707
-0.6752237
-0.6437204
-0.6110479
-0.5781977
-0.5512891
-0.5242025
-0.5115638
-0.4977876
-0.4586442
-0.4102873
-0.315395
-0.1865567
-0.1116059
-0.07254357
-0.02326001
0.01186742
0.01998027
0.02523469
0.02961203
0.01814912
-0.9738714
-0.9436908
-0.9123357
-0.8799064
-0.8468498
-0.8132655
-0.779692
-0.7458347
-0.7118881
-0.6782855
-0.6428156
-0.6104067
-0.5721234
-0.53908
-0.5109992
-0.4800004
-0.4835395
-0.4757762
-0.4475213
-0.4122215
-0.2954922
-0.1703278
-0.1123204
-0.06776472
-0.01815301
0.001273306
0.004610342
0.01733595
0.02770176
0.01803254
-0.9714473
-0.9416389
-0.9107318
-0.8785996
-0.8457552
-0.8123203
-0.7788932
-0.7453131
-0.7113797
-0.6782056
-0.6427874
-0.610573
-0.57256
-0.5388099
-0.511303
-0.4794051
-0.4830817
-0.4765253
-0.448121
-0.4135703
-0.2971763
-0.1704671
-0.1123808
-0.06828208
-0.01830973
0.001237721
0.004397252
0.01714894
0.02765604
0.01803871
-0.9664977
-0.9367257
-0.9062621
-0.8748209
-0.8428995
-0.8102098
-0.7773154
-0.7442777
-0.7103662
-0.6782453
-0.6419756
-0.6105249
-0.5726094
-0.5380171
-0.5117628
-0.4780896
-0.4826638
-0.4779038
-0.448673
-0.415572
-0.299174
-0.1702011
-0.1124503
-0.06892068
-0.01838092
0.001219003
0.004124175
0.0169566
0.0276431
0.01806633
-0.9593209
-0.9289664
-0.8985671
-0.8674529
-0.836231
-0.8042462
-0.7721144
-0.7402535
-0.7067901
-0.6762774
-0.6398842
-0.6096945
-0.572003
-0.5365851
-0.512322
-0.4764439
-0.4823506
-0.4797022
-0.4490868
-0.4178608
-0.3013383
-0.1698662
-0.1127894
-0.06980336
-0.01851581
0.001111212
0.003749604
0.01671653
0.02761116
0.01808797
-0.9487114
-0.9165771
-0.8852819
-0.8537539
-0.8228738
-0.7916545
-0.7606486
-0.7307158
-0.6983591
-0.6705614
-0.6347401
-0.6067554
-0.5700576
-0.5343172
-0.512772
-0.4747439
-0.4821226
-0.4812235
-0.4488368
-0.4196623
-0.3033505
-0.1698119
-0.1136015
-0.07099344
-0.01886856
0.000808174
0.003251301
0.01640257
0.02751019
0.01807485
-0.9336422
-0.8987844
-0.8656968
-0.8329778
-0.8018649
-0.7710878
-0.7411399
-0.7135182
-0.6829482
-0.6589528
-0.6249221
-0.6004765
-0.5659654
-0.5309895
-0.51266
-0.473
-0.4817972
-0.4818868
-0.4474801
-0.4201906
-0.3048879
-0.1703211
-0.1149639
-0.07243475
-0.01953793
0.0002270568
0.002627081
0.01602406
0.02733428
0.01801965
-0.9140746
-0.8755895
-0.8399565
-0.8053599
-0.7734365
-0.7426658
-0.7136124
-0.6885238
-0.6603525
-0.6410003
-0.6099514
-0.5902
-0.5589041
-0.526154
-0.511508
-0.4711335
-0.4810073
-0.4813154
-0.4448152
-0.4187741
-0.3057055
-0.1716947
-0.1168633
-0.07396853
-0.02057809
-0.000720248
0.001871845
0.01561256
0.0271109
0.01793299
-0.8895268
-0.8467648
-0.8081209
-0.7711321
-0.7379801
-0.7068628
-0.6786822
-0.6563173
-0.6311975
-0.6170907
-0.590164
-0.5759951
-0.5489645
-0.5197715
-0.5089549
-0.4691335
-0.4793487
-0.4792672
-0.4409428
-0.4149909
-0.3056567
-0.1742318
-0.1192488
-0.07537403
-0.02197531
-0.002121674
0.0009486851
0.01518607
0.0268796
0.01783727
-0.857993
-0.811002
-0.7692901
-0.7295581
-0.6950441
-0.6634168
-0.6364789
-0.617131
-0.5960701
-0.5877177
-0.566263
-0.5582203
-0.5365492
-0.5120031
-0.5047722
-0.4671949
-0.4765688
-0.4756046
-0.4361205
-0.4086518
-0.304628
-0.1781524
-0.1220908
-0.07644459
-0.02362382
-0.004008728
-0.0001998886
0.01472267
0.02666179
0.01775722
-0.8184973
-0.7673621
-0.7223116
-0.6791926
-0.6431346
-0.6108103
-0.5860344
-0.570082
-0.5548025
-0.5525694
-0.538479
-0.5368725
-0.5217885
-0.5030849
-0.4987517
-0.4657283
-0.4726427
-0.4702384
-0.430679
-0.3997918
-0.3024776
-0.1834703
-0.1253913
-0.07707985
-0.02533996
-0.006296668
-0.001604416
0.01417876
0.02645278
0.0177125
-0.7730786
-0.7174551
-0.6677723
-0.6201123
-0.5816716
-0.5478868
-0.5262908
-0.5135986
-0.506677
-0.5103745
-0.506586
-0.5113279
-0.5043346
-0.4930833
-0.4904198
-0.4651228
-0.4677614
-0.4631664
-0.4249347
-0.3887538
-0.2991044
-0.1898386
-0.1290809
-0.07735331
-0.02691196
-0.008754824
-0.003203308
0.01352859
0.02623829
0.01771386
-0.7264709
-0.6668507
-0.6101931
-0.5572345
-0.5141486
-0.4777214
-0.459441
-0.4489424
-0.4529411
-0.4614608
-0.4712894
-0.4817735
-0.4842795
-0.4821087
-0.4797198
-0.4653761
-0.4623276
-0.4547511
-0.4193028
-0.376515
-0.2947324
-0.1964361
-0.1328824
-0.07747551
-0.02819636
-0.01102161
-0.004825587
0.01281633
0.02601927
0.01775531
-0.6835617
-0.6218361
-0.5564891
-0.4996086
-0.4488715
-0.4100724
-0.3933153
-0.3841439
-0.3992507
-0.4111203
-0.4360927
-0.4510522
-0.4638152
-0.4708563
-0.4680029
-0.465947
-0.4569909
-0.4461423
-0.4143518
-0.3649834
-0.2901605
-0.202138
-0.136298
-0.07767572
-0.02920374
-0.01276677
-0.00612419
0.01217234
0.02582296
0.01781686
-0.652431
-0.588242
-0.5153486
-0.456401
-0.3962792
-0.3570649
-0.3385985
-0.3314614
-0.354022
-0.3689722
-0.4063143
-0.4247668
-0.4466696
-0.4607671
-0.458143
-0.4659283
-0.4525471
-0.4391586
-0.4106757
-0.3563901
-0.2865171
-0.2061564
-0.1387987
-0.07803438
-0.03005742
-0.01386991
-0.006852738
0.01175072
0.02568305
0.01787093
-0.6361321
-0.5668657
-0.4913115
-0.4296203
-0.3621529
-0.3234895
-0.3015015
-0.2974559
-0.3225581
-0.3412619
-0.3854361
-0.4071576
-0.4352366
-0.4534548
-0.4521839
-0.4649466
-0.4496528
-0.434899
-0.4084397
-0.3516956
-0.2845521
-0.2084789
-0.1401266
-0.07855194
-0.03087478
-0.01440787
-0.006971441
0.01161947
0.02560011
0.01789359
-0.6287883
-0.5542215
-0.4822962
-0.4149273
-0.345771
-0.3066399
-0.2818652
-0.2810979
-0.3050122
-0.3279011
-0.3736092
-0.3985602
-0.4293214
-0.449639
-0.4500437
-0.4636381
-0.448689
-0.4325243
-0.4073332
-0.3535222
-0.2841935
-0.2095808
-0.1404302
-0.07880167
-0.03168915
-0.01456742
-0.006590333
0.01171569
0.02552249
0.01787572
-0.6179187
-0.5466247
-0.4789647
-0.4082187
-0.3414952
-0.3002835
-0.2755094
-0.2764391
-0.298741
-0.3244337
-0.3694481
-0.396441
-0.4274958
-0.4490673
-0.4500919
-0.4629434
-0.4491542
-0.4307236
-0.4066513
-0.3540049
-0.2847148
-0.2100962
-0.1401057
-0.07874552
-0.03232941
-0.01452466
-0.006021516
0.01187248
0.02539809
0.01783725
-0.6105055
-0.546147
-0.4783649
-0.4067556
-0.3421469
-0.299201
-0.2749376
-0.2765585
-0.2977605
-0.3247829
-0.369322
-0.3971001
-0.4275588
-0.4503388
-0.4507009
-0.4632026
-0.4503368
-0.4292523
-0.4063153
-0.3549592
-0.2854658
-0.2105329
-0.1396523
-0.07850801
-0.03275539
-0.01440331
-0.005517864
0.0119486
0.02519574
0.01778401
)
;

boundaryField
{
    top
    {
        type            zeroGradient;
    }
    bottom
    {
        type            zeroGradient;
    }
    frontAndBack
    {
        type            empty;
    }
    fsiWall
    {
        type            zeroGradient;
    }
    inlet
    {
        type            zeroGradient;
    }
    outlet
    {
        type            fixedValue;
        value           uniform 0;
    }
    cylinder
    {
        type            zeroGradient;
    }
}


// ************************************************************************* //
