/*--------------------------------*- C++ -*----------------------------------*\
| =========                 |                                                 |
| \\      /  F ield         | OpenFOAM: The Open Source CFD Toolbox           |
|  \\    /   O peration     | Version:  2.1.x                                 |
|   \\  /    A nd           | Web:      www.OpenFOAM.org                      |
|    \\/     M anipulation  |                                                 |
\*---------------------------------------------------------------------------*/
FoamFile
{
    version     2.0;
    format      ascii;
    class       surfaceScalarField;
    location    "1";
    object      phi;
}
// * * * * * * * * * * * * * * * * * * * * * * * * * * * * * * * * * * * * * //

dimensions      [0 3 -1 0 0 0 0];

internalField   nonuniform List<scalar> 
4224
(
0.005004475
0.0001873197
-0.005191795
0.004026489
0.0009779862
0.002639375
0.001387114
0.0005987559
0.00204062
-0.0003871293
0.0009858851
-0.0005137001
0.0001265709
-0.0003301845
-0.0001835157
-0.0001879194
-0.0001422651
0.004807321
4.529893e-05
-0.0046653
0.004359702
0.001425605
0.003921885
0.001824931
0.00320623
0.002756274
0.001501751
0.002690364
7.539385e-05
0.001552928
-0.000481906
0.0003737841
-0.0001665051
-0.0005033203
0.004408054
0.0002411025
-0.004603858
0.00435047
0.001483188
0.004075295
0.002100106
0.00403614
0.00279543
0.00320923
0.003517274
0.001665289
0.003096869
0.0001943352
0.001844738
0.0005739527
-0.0005461227
0.003914104
0.0003967468
-0.004069749
0.003993761
0.001403532
0.00389217
0.002201698
0.003981649
0.00270595
0.003985991
0.003512932
0.003222114
0.003860746
0.001881232
0.00318562
0.001880305
0.0005748795
0.003595342
0.0005134728
-0.003712068
0.003660913
0.001337961
0.003700024
0.002162587
0.003723281
0.002682693
0.004046004
0.00319021
0.004128044
0.003778706
0.003459159
0.003854506
0.002852858
0.002486606
0.003310885
0.0005430136
-0.003340426
0.003338296
0.00131055
0.003482495
0.002018387
0.003547363
0.002617825
0.003799579
0.002937993
0.004303009
0.003275276
0.004376828
0.003780686
0.0032661
0.003963586
0.002966936
0.0004860985
-0.002910021
0.003024143
0.001253343
0.003183173
0.001859357
0.003397192
0.002403806
0.003589554
0.002745631
0.004051377
0.002813453
0.00460316
0.003228903
0.003153012
0.004716248
0.002692556
0.0004165842
-0.002623042
0.00278217
0.001163729
0.00289396
0.001747567
0.003165444
0.002132323
0.003465387
0.002445688
0.003772639
0.002506201
0.004440347
0.002561195
0.002713672
0.004879687
0.002455927
0.0003433341
-0.002382677
0.002564538
0.001055118
0.002685458
0.001626647
0.002894508
0.001923273
0.003307469
0.002032726
0.003589361
0.00222431
0.004130834
0.002019722
0.002158085
0.004686421
0.002278645
0.000276905
-0.002212216
0.002359658
0.0009741054
0.002542124
0.00144418
0.002688463
0.001776934
0.003083203
0.001637986
0.003449728
0.001857785
0.003981263
0.001488187
0.001512309
0.004627039
0.002035627
0.0001701906
-0.001928912
0.002116853
0.0008928788
0.002366418
0.001194616
0.002544349
0.001599003
0.002871709
0.001310626
0.003278355
0.001451139
0.003639268
0.001127273
0.001070836
0.004080741
0.001740267
5.533151e-05
-0.001625407
0.001849736
0.0007834095
0.002125287
0.0009190648
0.002396296
0.001327994
0.002688918
0.001018004
0.003096266
0.001043791
0.003520864
0.0007026758
0.0005146767
0.004077023
0.001394511
-6.599333e-05
-0.001273186
0.001571841
0.0006060791
0.001846942
0.0006439642
0.00220121
0.0009737253
0.002505307
0.0007139072
0.002885692
0.0006634057
0.003196433
0.000391935
0.0001941513
0.003516958
0.001066527
-0.0001450903
-0.0009874297
0.00129768
0.0003749256
0.001563487
0.0003781573
0.001958219
0.0005789934
0.00227256
0.0003995664
0.002624302
0.0003116635
0.002937642
7.85944e-05
-0.0001498283
0.003281622
0.0007399868
-0.0001575121
-0.000727565
0.0009762973
0.0001386151
0.001220189
0.0001342657
0.001595895
0.0002032875
0.001867795
0.0001276667
0.00211203
6.742764e-05
0.002241657
-5.103181e-05
-0.0001802308
0.002272059
0.000353174
-0.0005106861
0.0004917891
0.0006260549
0.0008293424
0.000957009
0.001024437
0.0009734048
0.000793174
0.00418586
-0.001047659
0.0004653147
0.004719493
-0.00120319
0.0006695564
0.005159651
-0.00135105
0.0009108922
0.005466247
-0.001491092
0.001184495
0.005617072
-0.00164899
0.001498165
0.005636918
-0.001784701
0.001764855
0.005590275
-0.001948202
0.001994845
0.005529043
-0.002097771
0.002159002
0.005435869
-0.00230502
0.002398194
0.00522173
-0.002485134
0.002699273
0.004855767
-0.002712155
0.003078118
0.004335623
-0.002888153
0.003408297
0.003672838
-0.003143277
0.003806063
0.002648217
-0.003328312
0.004352933
0.00149802
-0.003346374
0.004496571
-0.003491693
0.004989713
0.009445756
-0.001124274
0.009466071
-0.001223505
0.009414595
-0.001299574
0.009296519
-0.001373016
0.009095738
-0.001448209
0.008833434
-0.001522397
0.008488623
-0.00160339
0.008070347
-0.001679495
0.007531722
-0.001766396
0.006881125
-0.001834537
0.006090234
-0.001921263
0.005164701
-0.00196262
0.004059473
-0.002038049
0.002687449
-0.001956288
0.001334795
-0.00199372
-0.002156898
0.0127431
-0.0006544788
0.01222159
-0.0007020011
0.01164716
-0.0007251377
0.01102228
-0.00074814
0.01034225
-0.0007681809
0.009609425
-0.0007895708
0.008812927
-0.0008068923
0.007958731
-0.0008252985
0.007029306
-0.0008369708
0.0060423
-0.0008475313
0.004971177
-0.00085014
0.003859405
-0.0008508482
0.002693725
-0.000872369
0.001624122
-0.0008866853
0.0007256507
-0.001095248
-0.001431247
0.01438552
9.476459e-05
0.01358348
0.0001000404
0.01275621
0.0001021371
0.01190407
0.0001039957
0.01103066
0.0001052283
0.01013467
0.0001064224
0.009221058
0.0001067173
0.008288614
0.0001071455
0.00734552
0.0001061237
0.006392451
0.000105537
0.005439889
0.0001024223
0.004489484
9.95568e-05
0.003525675
9.144044e-05
0.002563393
7.559597e-05
0.001407379
6.076556e-05
-2.386774e-05
0.01439773
0.0008318049
0.0136075
0.0008902609
0.01279072
0.0009189169
0.01194697
0.0009477528
0.01108074
0.0009714586
0.01019013
0.0009970284
0.009281093
0.001015756
0.00835257
0.001035669
0.007413489
0.001045205
0.006466802
0.001052224
0.005520333
0.001048891
0.004579972
0.001039918
0.003616292
0.00105512
0.00265954
0.001032349
0.001471628
0.001248677
0.00144776
0.01277785
0.001266848
0.01228969
0.001378416
0.01174197
0.001466639
0.0111386
0.001551119
0.01047253
0.001637529
0.009749408
0.001720155
0.008953509
0.001811654
0.00809722
0.001891958
0.007153548
0.001988877
0.006154052
0.002051719
0.005059968
0.002142975
0.003944225
0.002155661
0.002768493
0.002230853
0.001716138
0.002084704
0.0008347576
0.002130058
0.002282518
0.009497989
0.001138
0.009567403
0.001309002
0.009555789
0.001478253
0.009474048
0.00163286
0.00929443
0.001817147
0.009050102
0.001964483
0.008711189
0.002150568
0.008303012
0.002300135
0.007759717
0.002532171
0.007095302
0.002716135
0.006266005
0.002972272
0.005293367
0.003128298
0.004153238
0.003370981
0.002696847
0.003541095
0.001344658
0.003482247
0.003627175
0.00423083
0.004812266
0.005303089
0.005662763
0.005854503
0.005890074
0.005828425
0.005745883
0.005655013
0.005461127
0.005092973
0.004509203
0.003810436
0.002747673
0.00156462
0.0003251638
0.0001401509
0.0004591506
-0.0001339868
0.0005966176
-0.000137467
0.0007962795
-0.0001996619
0.0009102673
-0.0001139878
0.0009597935
-4.952614e-05
0.0008905467
6.924674e-05
0.0001964055
0.0006941413
0.0006862704
0.0001234369
0.0009115205
-0.0003592369
0.001166195
-0.0003921419
0.00154273
-0.0005761964
0.001801059
-0.0003723173
0.002025294
-0.0002737614
0.002131636
-3.709448e-05
0.0001986619
0.002129379
0.0009924126
4.191659e-05
0.001212537
-0.0005793612
0.001493544
-0.0006731492
0.001886025
-0.0009686773
0.002192702
-0.0006789939
0.00253043
-0.0006114899
0.002819473
-0.0003261375
-0.0001252733
0.003143408
0.001296573
-7.016088e-05
0.001465898
-0.0007486866
0.001756012
-0.0009632632
0.002097653
-0.001310318
0.002398277
-0.0009796179
0.002773102
-0.0009863148
0.003079453
-0.0006324891
-0.0004361369
0.003390317
0.001599831
-0.0001718265
0.001717976
-0.0008668313
0.002000884
-0.001246171
0.002255777
-0.001565211
0.002556083
-0.001279925
0.002960115
-0.001390347
0.003375031
-0.001047405
-0.0009936664
0.00393256
0.001855402
-0.0002623731
0.001959117
-0.0009705465
0.002201255
-0.001488309
0.002380524
-0.00174448
0.00272761
-0.001627011
0.003123699
-0.001786436
0.003491938
-0.001415644
-0.001430491
0.003928762
0.00206436
-0.0003318888
0.002177172
-0.001083359
0.002347283
-0.001658419
0.002525618
-0.001922815
0.002930615
-0.002032008
0.003271647
-0.002127468
0.003778324
-0.00192232
-0.002096973
0.004444806
0.002247441
-0.0004203278
0.00237283
-0.001208747
0.002492539
-0.001778128
0.00273733
-0.002167606
0.003120848
-0.002415526
0.003397331
-0.002403951
0.003972472
-0.002497461
-0.002609306
0.004484806
0.002485567
-0.0005077004
0.002580117
-0.001303298
0.002708471
-0.001906481
0.002979374
-0.002438509
0.003239319
-0.002675472
0.003586584
-0.002751217
0.00425093
-0.003161806
-0.003000473
0.004642096
0.002753025
-0.0005614526
0.002819708
-0.001369981
0.002981399
-0.002068172
0.003159678
-0.002616789
0.003368231
-0.002884024
0.003873641
-0.003256627
0.004358677
-0.003646842
-0.003020315
0.004378519
0.003048099
-0.0005314344
0.003110501
-0.001432383
0.003233989
-0.00219166
0.003298473
-0.002681272
0.003602999
-0.003188551
0.004051065
-0.003704692
0.003993298
-0.003589076
-0.002533654
0.003506637
0.003327863
-0.000451
0.003421877
-0.001526397
0.003436483
-0.002206266
0.003514746
-0.002759536
0.003808358
-0.003482162
0.003728549
-0.003624883
0.002970666
-0.002831193
-0.001565526
0.002002538
0.003695052
-0.0003399893
0.003747143
-0.001578488
0.003662819
-0.002121942
0.00375725
-0.002853967
0.003621879
-0.003346791
0.002752185
-0.00275519
0.00144585
-0.001524859
-0.0004316507
0.0003119749
0.004213862
-0.0002009182
0.004074513
-0.001439139
0.003863859
-0.001911288
0.003704161
-0.002694269
0.002773436
-0.002416066
0.00132056
-0.001302314
7.26717e-05
-0.0002769708
0.0001586017
-0.0005175807
0.004565634
-0.0002699815
0.0041084
-0.0009819043
0.003663311
-0.001466199
0.002800138
-0.001831095
0.00119179
-0.0008077182
-1.75405e-05
-9.298323e-05
-0.0004522106
0.0001576993
0.0001726372
-0.0004662461
0.004719731
0.003737827
0.002271628
0.0004405324
-0.0003671858
-0.0004601691
-0.0003024698
-0.0001298326
-0.000195056
5.279097e-05
-0.000259226
6.416998e-05
-0.0003178712
5.864511e-05
-0.0003744681
5.659689e-05
-0.0004322241
5.775607e-05
-0.000493059
6.083492e-05
-0.0005559261
6.286711e-05
-0.0006183039
6.23778e-05
-0.0006769721
5.866822e-05
-0.0007280131
5.104104e-05
-0.0007674896
3.947648e-05
-0.00079296
2.54704e-05
-0.0008035952
1.063516e-05
-0.0007973206
-6.274573e-06
-0.0007696634
-2.765721e-05
-0.0007215887
-4.80747e-05
-0.0006546231
-6.696565e-05
-0.0005691203
-8.550274e-05
-0.0004680381
-0.0001010822
-0.0003528991
-0.000115139
-0.0002286587
-0.0001242404
-9.529532e-05
-0.0001333634
4.256185e-05
-0.0001378572
-0.0001535889
0.0001961508
-0.0005805958
0.0001300664
-0.0006503212
0.0001338953
-0.0006977571
0.000106081
-0.0007391889
9.802867e-05
-0.0007761463
9.471339e-05
-0.0008065639
9.125254e-05
-0.0008258429
8.214605e-05
-0.0008313211
6.785601e-05
-0.0008212281
4.857517e-05
-0.0007940046
2.381754e-05
-0.0007480528
-6.475342e-06
-0.0006874037
-3.517867e-05
-0.0006091654
-6.760316e-05
-0.0005131852
-0.0001022548
-0.0004037963
-0.000137046
-0.0002795137
-0.0001723574
-0.0001420241
-0.0002044553
8.157402e-06
-0.0002356842
0.0001667681
-0.0002596929
0.0003342942
-0.0002826651
0.0005078706
-0.0002978168
0.0006868428
-0.0003123355
0.0008701459
-0.0003211603
-0.0003323337
0.001048891
-0.0005295373
0.000113481
-0.0004912092
9.556718e-05
-0.0004599621
7.483389e-05
-0.0004295548
6.762139e-05
-0.0003896779
5.483646e-05
-0.0003349134
3.648808e-05
-0.0002626196
9.852175e-06
-0.0001769506
-1.781299e-05
-7.941457e-05
-4.896082e-05
2.961269e-05
-8.520972e-05
0.0001478883
-0.000124751
0.0002794415
-0.0001667319
0.0004213788
-0.0002095404
0.0005724092
-0.0002532852
0.0007300911
-0.0002947279
0.0008930063
-0.0003352726
0.001059096
-0.0003705454
0.001226536
-0.0004031235
0.001394979
-0.0004281362
0.001562324
-0.0004500101
0.001727943
-0.0004634359
0.001890959
-0.0004753512
0.002050262
-0.0004804631
-0.0004844267
0.002202355
0.0005346169
0.0001537436
0.0005571115
7.30725e-05
0.0005994216
3.252372e-05
0.0006683304
-1.287434e-06
0.0007536719
-3.050496e-05
0.0008571331
-6.697312e-05
0.0009738777
-0.0001068924
0.001103965
-0.0001479005
0.001244606
-0.000189602
0.001392455
-0.0002330588
0.001545117
-0.0002774122
0.001700954
-0.0003225689
0.001858048
-0.0003666347
0.002014576
-0.0004098134
0.002169303
-0.000449455
0.002320412
-0.0004863818
0.00246717
-0.0005173031
0.002608131
-0.0005440849
0.00274353
-0.0005635351
0.002871664
-0.000578144
0.002994471
-0.0005862427
0.003108324
-0.0005892044
0.003216563
-0.0005887015
-0.0005827342
0.00331487
0.002506125
0.0001342242
0.002495141
8.405624e-05
0.002500393
2.727192e-05
0.002528933
-2.982747e-05
0.002585772
-8.73441e-05
0.00266124
-0.0001424409
0.002750287
-0.0001959391
0.002850153
-0.0002477664
0.002957772
-0.0002972214
0.003069689
-0.0003449758
0.003183139
-0.0003908618
0.00329559
-0.0004350201
0.00340534
-0.0004763847
0.003510112
-0.000514585
0.003609121
-0.0005484647
0.003700254
-0.0005775141
0.003784069
-0.0006011184
0.003858684
-0.0006186995
0.003925885
-0.0006307365
0.003984042
-0.0006363009
0.004035385
-0.000637586
0.004078538
-0.0006323573
0.004115218
-0.0006253811
-0.0006121682
0.004144652
0.00401722
8.059012e-05
0.004064882
3.639503e-05
0.004101845
-9.691221e-06
0.0041427
-7.068269e-05
0.004188852
-0.0001334961
0.004240835
-0.0001944237
0.004296021
-0.000251125
0.004351739
-0.000303485
0.004406476
-0.0003519583
0.004458531
-0.0003970309
0.004506653
-0.0004389835
0.004549132
-0.0004774994
0.004585176
-0.0005124285
0.004613449
-0.0005428578
0.004633817
-0.0005688329
0.004645557
-0.0005892536
0.004649284
-0.0006048461
0.004644979
-0.0006143938
0.004633784
-0.0006195422
0.004616259
-0.0006187752
0.004593451
-0.0006147787
0.00456639
-0.0006052959
0.004535202
-0.0005941935
-0.0005790681
0.004502102
0.004777572
1.926542e-05
0.004841235
-2.726726e-05
0.004900351
-6.880755e-05
0.004947102
-0.000117434
0.0049847
-0.0001710935
0.005014823
-0.0002245468
0.00503819
-0.0002744925
0.005054696
-0.0003199913
0.005064067
-0.0003613287
0.005065841
-0.0003988053
0.005059651
-0.0004327929
0.005045156
-0.0004630049
0.00502229
-0.0004895628
0.0049912
-0.0005117678
0.004952309
-0.000529941
0.004906334
-0.0005432787
0.004854116
-0.0005526281
0.004796842
-0.0005571199
0.004735517
-0.0005582178
0.0046716
-0.0005548581
0.004605885
-0.0005490628
0.004539881
-0.000539292
0.004473926
-0.0005282393
-0.0005145221
0.00440938
0.004934966
-3.601333e-05
0.004990247
-8.254859e-05
0.005041299
-0.0001198594
0.005082322
-0.0001584569
0.005106621
-0.0001953928
0.005116276
-0.0002342018
0.005115004
-0.000273221
0.005104597
-0.0003095837
0.005085498
-0.0003422296
0.005057805
-0.0003711127
0.005021648
-0.0003966354
0.004977491
-0.000418848
0.004925875
-0.0004379467
0.004867712
-0.0004536047
0.004803839
-0.0004660681
0.004735479
-0.0004749193
0.004663597
-0.0004807457
0.004589554
-0.0004830774
0.004514239
-0.0004829025
0.004438942
-0.0004795612
0.00436429
-0.0004744103
0.004291469
-0.0004664709
0.004220795
-0.0004575655
-0.0004460807
0.004152353
0.004761462
-0.0001110547
0.004827416
-0.0001485018
0.004873457
-0.0001659012
0.004889245
-0.0001742441
0.004891901
-0.0001980494
0.004884946
-0.0002272469
0.004868891
-0.000257166
0.004844417
-0.0002851092
0.004812167
-0.0003099795
0.004772725
-0.0003316708
0.004726583
-0.0003504937
0.004674413
-0.0003666774
0.004616891
-0.0003804246
0.004554948
-0.0003916623
0.004489402
-0.0004005214
0.00442131
-0.0004068277
0.004351459
-0.0004108946
0.004280889
-0.0004125075
0.004210211
-0.0004122246
0.004140353
-0.0004097027
0.004071664
-0.000405722
0.004004926
-0.0003997331
0.003940238
-0.0003928773
-0.0003834921
0.00387765
0.004591792
-7.580787e-05
0.004553041
-0.000109751
0.004531721
-0.0001445813
0.0045363
-0.0001788223
0.0045399
-0.0002016502
0.004532328
-0.0002196741
0.004513907
-0.0002387457
0.004487298
-0.0002584994
0.00445416
-0.0002768421
0.004415413
-0.0002929237
0.004371633
-0.0003067134
0.004323388
-0.0003184321
0.004271228
-0.000328265
0.004215831
-0.0003362654
0.004157808
-0.0003424981
0.004097897
-0.0003469164
0.004036654
-0.0003496519
0.003974785
-0.0003506387
0.003912686
-0.0003501257
0.003850963
-0.0003479797
0.003789851
-0.0003446098
0.003729865
-0.0003397466
0.003670978
-0.000333991
-0.0003265006
0.003613987
0.004163448
-0.0001585147
0.004219679
-0.0001659822
0.004245492
-0.0001703944
0.004239217
-0.0001725464
0.004223894
-0.0001863277
0.004206698
-0.0002024783
0.004185676
-0.0002177232
0.004158852
-0.0002316761
0.004126393
-0.0002443825
0.004089133
-0.0002556642
0.004047784
-0.0002653642
0.004002853
-0.000273501
0.003954742
-0.0002801536
0.00390388
-0.0002854038
0.003850677
-0.0002892945
0.003795608
-0.0002918474
0.003739059
-0.0002931033
0.003681496
-0.0002930751
0.003623223
-0.0002918536
0.003564683
-0.0002894391
0.003506067
-0.000285994
0.003447777
-0.0002814567
0.003389836
-0.0002760495
-0.0002697129
0.003333048
0.004012701
-9.419264e-05
0.003962622
-0.0001159026
0.003931368
-0.0001391406
0.003920799
-0.0001619775
0.003908887
-0.0001744163
0.0038897
-0.0001832904
0.003864064
-0.0001920881
0.003833401
-0.0002010131
0.003798374
-0.0002093549
0.003759363
-0.0002166529
0.003716738
-0.0002227398
0.003670843
-0.0002276056
0.003621973
-0.0002312844
0.003570413
-0.0002338433
0.003516441
-0.0002353227
0.003460371
-0.0002357776
0.003402499
-0.0002352309
0.003343161
-0.0002337376
0.003282631
-0.0002313231
0.003221248
-0.0002280567
0.003159229
-0.0002239747
0.003096943
-0.0002191708
0.003034616
-0.0002137219
-0.0002073869
0.00297229
0.003569424
-0.0001466587
0.003595445
-0.0001419234
0.003596302
-0.0001399977
0.003573522
-0.0001391974
0.003544055
-0.0001449495
0.003512872
-0.0001521072
0.003479005
-0.0001582214
0.003441137
-0.0001631451
0.003399003
-0.0001672205
0.003352846
-0.0001704955
0.003302996
-0.0001728896
0.003249741
-0.0001743511
0.003193345
-0.0001748883
0.003134057
-0.0001745556
0.00307215
-0.0001734152
0.00300791
-0.0001715374
0.002941652
-0.0001689733
0.002873701
-0.0001657863
0.002804387
-0.0001620093
0.00273404
-0.0001577098
0.002662972
-0.0001529068
0.002591502
-0.0001477011
0.00251985
-0.0001420692
-0.0001361326
0.002448595
0.003206573
-7.160977e-05
0.003147178
-8.252793e-05
0.003099544
-9.23638e-05
0.003059655
-9.930869e-05
0.003017266
-0.0001025602
0.002969593
-0.0001044348
0.002917372
-0.0001060003
0.002861392
-0.0001071651
0.002801924
-0.0001077522
0.002739107
-0.0001076787
0.00267314
-0.0001069224
0.002604288
-0.000105499
0.002532859
-0.0001034594
0.002459181
-0.0001008778
0.002383608
-9.784217e-05
0.002306506
-9.44352e-05
0.002228267
-9.073442e-05
0.002149284
-8.680342e-05
0.002069979
-8.270405e-05
0.001990733
-7.846404e-05
0.001911958
-7.413126e-05
0.001834015
-6.975855e-05
0.001757334
-6.538747e-05
-6.097838e-05
0.001682179
0.002244099
-4.365007e-05
0.002202256
-4.068465e-05
0.002150001
-4.010854e-05
0.002091343
-4.065111e-05
0.002029958
-4.117455e-05
0.001966614
-4.109125e-05
0.001901054
-4.044059e-05
0.001833248
-3.935907e-05
0.001763391
-3.789477e-05
0.001691769
-3.60566e-05
0.00161873
-3.388323e-05
0.001544687
-3.14565e-05
0.001470108
-2.887987e-05
0.001395495
-2.62652e-05
0.00132137
-2.371704e-05
0.001248254
-2.13188e-05
0.001176649
-1.913027e-05
0.001107029
-1.718302e-05
0.001039817
-1.549195e-05
0.0009754013
-1.404839e-05
0.0009141179
-1.284788e-05
0.000856213
-1.185362e-05
0.0008018999
-1.107437e-05
-1.036904e-05
0.0007512905
0.000749524
0.0007088393
0.0006687308
0.0006280797
0.0005869051
0.0005458138
0.0005053733
0.0004660142
0.0004281194
0.0003920628
0.0003581796
0.0003267231
0.0002978432
0.000271578
0.000247861
0.0002265422
0.0002074119
0.0001902289
0.000174737
0.0001606886
0.0001478407
0.0001359871
0.0001249127
0.0001145437
0.0006521694
4.197189e-05
0.0006133597
3.880968e-05
0.000575288
3.807176e-05
0.0005370985
3.818946e-05
0.0004989842
3.811434e-05
0.0004615247
3.745946e-05
0.0004252052
3.631955e-05
0.0003903864
3.481879e-05
0.0003573742
3.301215e-05
0.0003264332
3.094102e-05
0.0002977598
2.867343e-05
0.0002714569
2.630287e-05
0.0002475272
2.392976e-05
0.0002258833
2.164386e-05
0.0002063703
1.951297e-05
0.0001887777
1.759266e-05
0.0001728641
1.59136e-05
0.0001583947
1.446937e-05
0.0001451512
1.324356e-05
0.0001329433
1.220785e-05
0.0001216057
1.133768e-05
0.0001110168
1.058888e-05
0.0001010545
9.96232e-06
9.305889e-06
9.174858e-05
0.002094316
7.70354e-05
0.00204552
8.760502e-05
0.001987467
9.612523e-05
0.001924168
0.0001014882
0.001858668
0.0001036146
0.001791484
0.0001046433
0.001722485
0.0001053189
0.00165175
0.0001055537
0.00157955
0.0001052123
0.001506258
0.0001042332
0.001432324
0.0001026068
0.00135826
0.0001003668
0.001284607
9.758313e-05
0.001211905
9.434567e-05
0.001140673
9.074471e-05
0.001071405
8.686092e-05
0.001004558
8.276035e-05
0.0009405305
7.849719e-05
0.0008796527
7.412142e-05
0.0008221773
6.968317e-05
0.0007682827
6.523231e-05
0.0007180574
6.081425e-05
0.000671552
5.646773e-05
5.224356e-05
0.0006286143
0.003063001
0.0001574428
0.002999743
0.0001508626
0.002947711
0.0001481574
0.002901728
0.0001474715
0.002852793
0.0001525498
0.002798851
0.0001585847
0.002740747
0.0001634234
0.002679062
0.0001672384
0.002614034
0.0001702402
0.002545875
0.0001723922
0.002474883
0.0001735995
0.002401407
0.0001738421
0.002325824
0.0001731664
0.002248509
0.0001716613
0.002169859
0.0001693945
0.002090278
0.0001664414
0.002010202
0.0001628364
0.001930053
0.0001586467
0.001850281
0.0001538935
0.001771296
0.0001486675
0.001693542
0.0001429864
0.001617379
0.0001369775
0.001543212
0.0001306352
0.0001239921
0.001471463
0.003438378
0.0001093816
0.003457001
0.0001322397
0.003450087
0.0001550709
0.003421659
0.0001758994
0.00338754
0.0001866691
0.003351696
0.0001944289
0.003312829
0.0002022905
0.003269819
0.0002102486
0.003222557
0.0002175019
0.003171365
0.0002235846
0.003116624
0.0002283397
0.003058648
0.0002318185
0.002997731
0.0002340837
0.002934141
0.000235251
0.002868194
0.0002353416
0.002800194
0.0002344415
0.002730499
0.0002325308
0.002659438
0.0002297081
0.002587381
0.0002259504
0.002514663
0.0002213857
0.00244164
0.0002160097
0.00236865
0.000209967
0.002295981
0.000203304
0.0001958933
0.00222408
0.003860919
0.0001810231
0.003807041
0.0001861171
0.003773047
0.0001890653
0.003758044
0.0001909021
0.003741148
0.0002035655
0.003717477
0.0002181001
0.003687684
0.0002320837
0.003652948
0.0002449843
0.003613972
0.0002564778
0.003571209
0.0002663472
0.003525067
0.0002744823
0.003475852
0.0002810331
0.003423871
0.0002860647
0.003369385
0.000289737
0.003312714
0.000292013
0.00325415
0.0002930052
0.003194024
0.0002926572
0.003132633
0.0002910985
0.003070269
0.0002883145
0.003007245
0.0002844096
0.00294378
0.0002794749
0.002880237
0.0002735103
0.002816737
0.0002668039
0.0002590207
0.002753609
0.004008285
0.0001015001
0.004056072
0.0001383297
0.004072371
0.0001727661
0.004060173
0.0002031007
0.00404195
0.0002217889
0.004021188
0.0002388621
0.003995522
0.000257749
0.003964168
0.000276339
0.003927694
0.000292951
0.003886881
0.0003071606
0.00384237
0.000318993
0.003794593
0.0003288106
0.003743991
0.000336667
0.003690966
0.0003427612
0.003635985
0.0003469943
0.003579475
0.0003495153
0.003521851
0.0003502809
0.003463514
0.0003494362
0.003404747
0.0003470807
0.003345944
0.0003432127
0.003287233
0.000338186
0.003229043
0.0003317005
0.0031713
0.000324547
0.00031561
0.003114711
0.004400163
0.0001461426
0.004362631
0.0001758619
0.004346311
0.0001890862
0.004349782
0.0001996301
0.004347221
0.0002243494
0.004332812
0.0002532708
0.004308768
0.0002817935
0.004277383
0.0003077242
0.004240079
0.0003302542
0.004197586
0.0003496535
0.004150509
0.0003660705
0.004099371
0.0003799483
0.004044826
0.0003912118
0.003987515
0.0004000727
0.003928132
0.0004063771
0.003867346
0.0004103017
0.003805744
0.0004118829
0.003743946
0.0004112339
0.003682324
0.0004087026
0.00362143
0.0004041073
0.003561372
0.0003982433
0.003502706
0.0003903668
0.003445153
0.0003820997
0.0003710532
0.00338971
0.004563912
6.7036e-05
0.004624079
0.000115695
0.004658624
0.0001545419
0.004669078
0.0001891756
0.004667863
0.0002255649
0.004656723
0.000264411
0.004636434
0.0003020819
0.004607811
0.0003363473
0.004571755
0.0003663101
0.004528837
0.0003925718
0.004479703
0.0004152044
0.004424955
0.0004346959
0.004365452
0.0004507157
0.004302046
0.0004634787
0.004235703
0.0004727195
0.004167372
0.0004786326
0.004097926
0.0004813289
0.004028286
0.0004808743
0.003959072
0.0004779166
0.003891116
0.0004720627
0.003824664
0.0004646959
0.00376047
0.000454561
0.003698339
0.0004442304
0.0004307266
0.003638665
0.004690584
1.854882e-05
0.004742054
6.422415e-05
0.004790887
0.0001057091
0.004825765
0.0001542983
0.004844624
0.0002067058
0.004850726
0.0002583085
0.004847061
0.000305747
0.004834577
0.0003488313
0.004813627
0.0003872603
0.004784134
0.0004220651
0.004746544
0.0004527944
0.004701174
0.0004800657
0.004648898
0.0005029914
0.004590396
0.000521981
0.004526843
0.0005362728
0.004459162
0.0005463136
0.004388646
0.0005518442
0.004316311
0.00055321
0.004243334
0.000550893
0.004170635
0.0005447615
0.004099062
0.000536269
0.004029462
0.0005241615
0.003962228
0.0005114643
0.0004958152
0.003897139
0.004438061
-4.099235e-05
0.004502547
-2.618974e-07
0.004556554
5.170146e-05
0.004601499
0.0001093534
0.004639104
0.0001691005
0.004670563
0.0002268498
0.004696263
0.000280047
0.004715607
0.0003294876
0.004728198
0.0003746695
0.004733118
0.0004171448
0.004730258
0.0004556543
0.004718933
0.0004913907
0.004699626
0.0005222985
0.004671962
0.0005496453
0.004637097
0.0005711379
0.004594968
0.0005884423
0.004547376
0.0005994361
0.004494443
0.0006061432
0.004438347
0.0006069887
0.004379159
0.0006039496
0.004319026
0.0005964019
0.004257932
0.0005852551
0.004197551
0.0005718458
0.00055593
0.004137436
0.003563959
-9.831467e-05
0.003609694
-4.599692e-05
0.003652456
8.939932e-06
0.003698621
6.318811e-05
0.003752537
0.0001151842
0.00381298
0.0001664073
0.00387667
0.0002163564
0.003941052
0.0002651058
0.00400422
0.0003115013
0.004064278
0.0003570873
0.004119938
0.0003999947
0.00416942
0.0004419085
0.004212286
0.0004794327
0.004246773
0.0005151579
0.004273628
0.0005442826
0.004291118
0.0005709529
0.004301451
0.0005891026
0.00430275
0.0006048442
0.004298619
0.0006111204
0.004286603
0.0006159654
0.004271223
0.0006117815
0.004249297
0.0006071814
0.004225506
0.0005956363
0.0005845161
0.00419692
0.002022845
-0.0001186213
0.002028529
-5.168101e-05
0.002058209
-2.073995e-05
0.002111471
9.926315e-06
0.002185586
4.10693e-05
0.00227563
7.636345e-05
0.002377695
0.0001142906
0.002489126
0.0001536747
0.00260604
0.000194588
0.002725579
0.0002375483
0.002845043
0.0002805307
0.002962603
0.0003243482
0.003076208
0.0003658275
0.003184377
0.0004069895
0.003285903
0.0004427561
0.003379385
0.000477471
0.003465382
0.0005031058
0.003541814
0.0005284117
0.003611736
0.0005411983
0.003671332
0.0005563698
0.003726339
0.0005567746
0.003770248
0.0005632726
0.003810859
0.0005550247
0.0005550745
0.003840301
0.0003055644
-0.0001122109
0.00035572
-0.0001018366
0.00041731
-8.232996e-05
0.0004982094
-7.097304e-05
0.0005925085
-5.322978e-05
0.0007005686
-3.169664e-05
0.0008174468
-2.587588e-06
0.0009467341
2.438745e-05
0.00108448
5.684249e-05
0.00122864
9.338754e-05
0.001376742
0.0001324292
0.001527793
0.0001732971
0.001679516
0.0002141046
0.001830881
0.0002556246
0.001979911
0.000293726
0.002125732
0.0003316497
0.002266681
0.0003621569
0.002402824
0.0003922686
0.002532475
0.0004115472
0.002656397
0.0004324475
0.002774188
0.0004389837
0.002883806
0.0004536544
0.002988012
0.0004508187
0.0004624413
0.003080646
-0.0005131791
-0.0001166125
-0.0004895742
-0.0001254415
-0.0004676202
-0.000104284
-0.0004394087
-9.918455e-05
-0.0003995679
-9.307048e-05
-0.00034574
-8.552458e-05
-0.0002751895
-7.313808e-05
-0.0001938479
-5.695412e-05
-0.0001004756
-3.652983e-05
3.194924e-06
-1.028296e-05
0.0001186639
1.69603e-05
0.0002462975
4.566354e-05
0.0003835066
7.689543e-05
0.0005294211
0.0001097101
0.0006807332
0.0001424139
0.0008374142
0.0001749686
0.000995737
0.0002038342
0.001156374
0.0002316321
0.001316205
0.0002517153
0.001475929
0.000272724
0.001632478
0.0002824347
0.001788418
0.0002977145
0.001937963
0.0003012736
0.0003175687
0.002082836
-0.0005345412
-4.831742e-05
-0.0005996226
-6.03601e-05
-0.0006484976
-5.540911e-05
-0.0006927011
-5.498107e-05
-0.0007295792
-5.619234e-05
-0.0007574635
-5.764029e-05
-0.0007731233
-5.747823e-05
-0.0007749152
-5.516224e-05
-0.000761434
-5.001106e-05
-0.0007303301
-4.138685e-05
-0.0006836101
-2.975964e-05
-0.000621439
-1.650761e-05
-0.0005409927
-3.550895e-06
-0.0004465719
1.528926e-05
-0.0003384704
3.431241e-05
-0.0002160747
5.257297e-05
-8.199217e-05
6.97516e-05
6.356917e-05
8.607081e-05
0.0002163248
9.895966e-05
0.000377719
0.0001113298
0.0005425724
0.0001175813
0.0007134689
0.000126818
0.0008877347
0.0001270078
0.0001481595
0.001057144
-0.0001781501
-0.0002385102
-0.0002939193
-0.0003489003
-0.0004050926
-0.0004627329
-0.0005202111
-0.0005753733
-0.0006253843
-0.0006667712
-0.0006965308
-0.0007130385
-0.0007165894
-0.0007013001
-0.0006669877
-0.0006144148
-0.0005446632
-0.0004585924
-0.0003596327
-0.0002483029
-0.0001307215
-3.903578e-06
0.0001231042
0.0002712637
0.0003659927
-0.0001996782
2.983622e-05
0.000547122
-0.0002343959
5.326662e-05
0.000729911
-0.0002914007
0.0001086116
0.0009303217
-0.0003215034
0.0001210928
0.001140759
-0.0003567433
0.0001463062
0.001344522
-0.0003676159
0.000163853
0.001561497
-0.0003747833
0.0001578084
0.00175645
-0.0003691776
0.0001742246
0.001949092
-0.0003562813
0.0001636392
0.002122341
-0.0003346526
0.0001614036
0.002272149
-0.0003044748
0.0001546669
0.002418281
-0.0002946462
0.0001485138
0.002518642
-0.000232484
0.0001321233
0.002629408
-0.0002367438
0.0001259776
0.002697384
-0.000199541
0.0001315652
0.002749572
-0.0001369881
8.479973e-05
0.00281868
-0.0002033532
0.0001342449
0.002828865