/*--------------------------------*- C++ -*----------------------------------*\
| =========                 |                                                 |
| \\      /  F ield         | OpenFOAM: The Open Source CFD Toolbox           |
|  \\    /   O peration     | Version:  2.1.x                                 |
|   \\  /    A nd           | Web:      www.OpenFOAM.org                      |
|    \\/     M anipulation  |                                                 |
\*---------------------------------------------------------------------------*/
FoamFile
{
    version     2.0;
    format      ascii;
    class       volScalarField;
    location    "1";
    object      rAU;
}
// * * * * * * * * * * * * * * * * * * * * * * * * * * * * * * * * * * * * * //

dimensions      [0 0 1 0 0 0 0];

internalField   nonuniform List<scalar> 
2172
(
0.0009603643
0.0009784813
0.0009708281
0.0009635097
0.0009636435
0.000968286
0.0009725699
0.0009743327
0.0009704947
0.000983287
0.0009783348
0.0009734067
0.0009736364
0.0009772451
0.0009806702
0.0009799484
0.0009732039
0.0009826001
0.0009783868
0.0009747659
0.0009745856
0.0009780616
0.0009821723
0.0009813348
0.0009758727
0.0009820754
0.0009783262
0.0009758
0.0009757168
0.0009785771
0.0009827058
0.0009876757
0.0009775288
0.0009817834
0.0009784467
0.0009765693
0.0009768668
0.0009792882
0.0009829542
0.0009990355
0.0009787594
0.0009815441
0.000978632
0.0009771577
0.0009777783
0.0009800651
0.0009832148
0.001008813
0.0009797355
0.0009813291
0.0009788123
0.0009776585
0.0009784255
0.0009806952
0.0009835197
0.001014392
0.0009803108
0.0009811843
0.0009789772
0.0009781039
0.0009789208
0.0009811075
0.0009837818
0.001016041
0.0009806826
0.0009810722
0.0009791223
0.0009784736
0.0009793428
0.0009813699
0.0009839331
0.00101508
0.000980886
0.0009809773
0.0009792612
0.0009787643
0.0009796926
0.0009815635
0.0009839838
0.001014728
0.0009811054
0.0009808732
0.0009793897
0.0009790007
0.0009799597
0.0009817167
0.0009839806
0.001011046
0.0009812704
0.0009807743
0.0009795065
0.0009792131
0.0009801623
0.000981829
0.0009839251
0.001010725
0.0009814119
0.0009806885
0.0009796092
0.000979413
0.0009803263
0.0009819074
0.0009838646
0.001006834
0.0009814644
0.0009806223
0.0009796991
0.0009795979
0.0009804682
0.0009819632
0.0009837844
0.001004971
0.000981466
0.0009805636
0.0009797745
0.0009797638
0.000980599
0.0009820202
0.0009837402
0.0009984801
0.0009764362
0.0009735718
0.0009711035
0.0009702572
0.0009715595
0.0009745365
0.0009781425
0.0009856191
0.0009417888
0.0009800806
0.0009802328
0.0009803422
0.0009803756
0.0009803601
0.000980277
0.0009801495
0.0009798161
0.0009791804
0.0009780156
0.0009762698
0.0009733461
0.0009682429
0.0009614201
0.0009440005
0.0008888031
0.0009800139
0.0009802068
0.0009804039
0.0009805981
0.0009807885
0.0009809604
0.0009811037
0.0009811732
0.0009811331
0.0009808785
0.0009803034
0.0009790841
0.0009767889
0.0009726007
0.0009589023
0.0008541181
0.000979824
0.0009799208
0.0009800101
0.0009800861
0.0009801402
0.000980158
0.0009801194
0.0009799887
0.0009797183
0.000979214
0.0009783512
0.0009768662
0.0009744823
0.0009704307
0.0009558448
0.0008369315
0.000979737
0.0009797827
0.0009798191
0.0009798416
0.0009798436
0.0009798156
0.0009797427
0.0009796039
0.0009793654
0.0009789746
0.0009783405
0.000977281
0.000975466
0.0009718836
0.0009556326
0.0008370637
0.0009797199
0.0009797683
0.0009798072
0.0009798321
0.0009798361
0.0009798099
0.0009797385
0.0009796013
0.0009793652
0.0009789785
0.0009783527
0.0009772998
0.0009755048
0.0009718742
0.0009556549
0.0008544396
0.000979777
0.000979881
0.0009799767
0.0009800577
0.0009801151
0.0009801329
0.0009800909
0.0009799494
0.0009796629
0.0009791292
0.000978241
0.0009767132
0.0009743442
0.0009702569
0.0009558366
0.0008891805
0.0009799482
0.0009801518
0.0009803591
0.0009805599
0.0009807553
0.0009809261
0.0009810677
0.0009811228
0.0009810618
0.0009807545
0.0009801203
0.0009788049
0.0009764046
0.0009721338
0.000958709
0.0009420142
0.0009798075
0.0009798839
0.0009799078
0.0009798122
0.0009796696
0.0009794314
0.0009792031
0.0009787379
0.0009779762
0.0009765389
0.0009745231
0.0009714779
0.0009662423
0.0009598649
0.0009429866
0.0009741139
0.0009705082
0.000967508
0.0009664357
0.0009680016
0.0009716029
0.0009758927
0.0009835357
0.0009795204
0.0009781266
0.0009771675
0.0009771639
0.000978182
0.000979901
0.0009819584
0.0009967823
0.0009796502
0.0009782172
0.0009770944
0.0009769907
0.0009780529
0.0009798618
0.0009820369
0.001003653
0.0009797418
0.0009783187
0.0009770062
0.0009767997
0.0009779143
0.0009798285
0.0009821579
0.001005715
0.0009797826
0.0009784409
0.0009769054
0.0009765948
0.0009777514
0.0009797727
0.0009822615
0.001009718
0.0009798001
0.0009785771
0.000976793
0.000976375
0.0009775436
0.0009796821
0.0009823597
0.001010045
0.0009797809
0.0009787195
0.0009766728
0.0009761224
0.0009772654
0.0009795529
0.0009824082
0.001013753
0.0009797329
0.0009788651
0.0009765476
0.000975807
0.0009769082
0.0009793835
0.0009823932
0.001014056
0.0009795378
0.000979042
0.0009764168
0.0009754126
0.0009764856
0.0009791302
0.00098227
0.00101492
0.0009791447
0.0009792676
0.0009762706
0.0009749507
0.0009759746
0.0009787025
0.0009820484
0.001012671
0.0009784588
0.0009795609
0.0009761166
0.0009744276
0.0009752755
0.0009780668
0.0009818256
0.001006277
0.0009775113
0.0009799074
0.0009759879
0.0009737907
0.0009743083
0.0009773568
0.0009816992
0.0009961626
0.0009760182
0.0009803881
0.0009759559
0.0009729645
0.0009731699
0.0009767983
0.000981625
0.000985772
0.0009735436
0.0009812093
0.0009760922
0.0009719326
0.0009721381
0.0009764608
0.0009812857
0.0009807636
0.0009706882
0.0009822417
0.0009761213
0.0009706788
0.0009713134
0.000975802
0.000979956
0.0009795257
0.0009603482
0.0009771988
0.0009677798
0.0009596928
0.0009605552
0.0009664053
0.0009716494
0.0009738675
0.000967554
0.0009675745
0.0009680206
0.0009684369
0.0009688237
0.0009691813
0.0009695099
0.00096981
0.0009700822
0.0009703274
0.0009705467
0.0009707414
0.000970913
0.0009710626
0.0009711914
0.0009713016
0.0009713947
0.000971472
0.0009715353
0.0009715857
0.0009716248
0.0009716529
0.0009716714
0.0009716474
0.0009680101
0.0009694717
0.0009701431
0.0009707884
0.000971405
0.0009719917
0.0009725471
0.0009730709
0.0009735629
0.0009740229
0.0009744506
0.0009748476
0.0009752129
0.0009755468
0.0009758489
0.0009761202
0.0009763611
0.0009765713
0.0009767519
0.0009769019
0.0009770228
0.0009771125
0.0009771728
0.0009754865
0.0009660881
0.0009681522
0.0009688698
0.0009695611
0.0009702202
0.000970846
0.0009714369
0.0009719942
0.0009725175
0.0009730061
0.0009734603
0.0009738814
0.0009742687
0.0009746224
0.0009749432
0.0009752309
0.0009754868
0.0009757099
0.0009759022
0.0009760619
0.0009761909
0.0009762868
0.0009763515
0.0009712452
0.0009744814
0.000966665
0.0009674341
0.0009681726
0.0009688765
0.0009695433
0.0009701732
0.0009707677
0.0009713263
0.0009718485
0.0009723346
0.0009727847
0.0009731993
0.0009735783
0.0009739227
0.000974232
0.0009745076
0.0009747486
0.0009749566
0.00097513
0.0009752703
0.0009753758
0.0009754471
0.0009655677
0.0009972043
0.0009650106
0.0009658325
0.0009666187
0.0009673686
0.0009680802
0.000968754
0.0009693903
0.0009699892
0.0009705502
0.0009710733
0.0009715584
0.0009720061
0.0009724162
0.0009727894
0.0009731256
0.0009734255
0.0009736887
0.0009739158
0.0009741064
0.0009742603
0.0009743776
0.0009744571
0.00095926
0.001023525
0.0009631458
0.0009640332
0.0009648773
0.0009656809
0.0009664452
0.0009671703
0.0009678562
0.0009685026
0.0009691091
0.0009696757
0.0009702021
0.0009706886
0.0009711353
0.0009715423
0.0009719098
0.0009722378
0.0009725266
0.0009727756
0.0009729853
0.0009731546
0.0009732845
0.0009733729
0.00095357
0.001045518
0.0009610232
0.0009619888
0.0009629063
0.0009637789
0.0009646084
0.0009653959
0.0009661416
0.000966845
0.0009675058
0.0009681236
0.0009686984
0.0009692301
0.0009697189
0.0009701646
0.0009705675
0.0009709271
0.0009712439
0.0009715169
0.0009717469
0.0009719325
0.0009720746
0.0009721716
0.0009492912
0.001059933
0.0009586125
0.0009596652
0.000960669
0.0009616252
0.0009625337
0.0009633955
0.0009642114
0.0009649814
0.0009657052
0.0009663823
0.0009670127
0.000967596
0.0009681323
0.0009686215
0.0009690635
0.0009694579
0.000969805
0.000970104
0.0009703553
0.0009705579
0.0009707124
0.0009708175
0.0009456893
0.001067114
0.0009558616
0.0009570174
0.0009581248
0.0009591772
0.0009601762
0.0009611233
0.0009620197
0.0009628657
0.0009636612
0.0009644056
0.0009650987
0.0009657401
0.0009663298
0.0009668673
0.0009673528
0.0009677857
0.0009681662
0.0009684937
0.0009687683
0.0009689894
0.0009691573
0.0009692712
0.000942139
0.001077354
0.0009527349
0.0009540016
0.000955216
0.0009563738
0.0009574754
0.0009585201
0.0009595084
0.000960441
0.0009613177
0.0009621383
0.0009629023
0.0009636092
0.0009642589
0.0009648511
0.0009653855
0.000965862
0.0009662803
0.0009666401
0.0009669414
0.0009671837
0.0009673672
0.0009674913
0.000938454
0.001072645
0.0009491279
0.0009505259
0.0009518647
0.0009531424
0.0009543595
0.0009555147
0.000956608
0.0009576394
0.000958609
0.0009595164
0.0009603613
0.0009611431
0.0009618615
0.0009625162
0.000963107
0.0009636334
0.0009640955
0.0009644927
0.0009648251
0.0009650923
0.0009652942
0.0009654307
0.0009348716
0.001083532
0.0009449428
0.0009464911
0.0009479743
0.0009493904
0.0009507397
0.0009520214
0.000953235
0.0009543803
0.0009554568
0.0009564644
0.0009574026
0.0009582709
0.0009590688
0.000959796
0.0009604522
0.0009610369
0.00096155
0.0009619911
0.00096236
0.0009626565
0.0009628805
0.0009630316
0.0009321651
0.001073689
0.0009400544
0.000941776
0.0009434246
0.000945001
0.0009465039
0.0009479323
0.0009492854
0.0009505627
0.0009517637
0.0009528881
0.0009539351
0.0009549043
0.0009557953
0.0009566073
0.0009573401
0.0009579933
0.0009585663
0.000959059
0.0009594709
0.000959802
0.0009600519
0.0009602205
0.0009318139
0.001073796
0.0009342927
0.000936219
0.0009380658
0.0009398301
0.0009415122
0.0009431117
0.0009446279
0.0009460598
0.0009474068
0.0009486681
0.000949843
0.0009509309
0.000951931
0.0009528428
0.0009536656
0.0009543989
0.0009550423
0.0009555953
0.0009560576
0.0009564289
0.0009567088
0.0009568973
0.0009360645
0.001037817
0.0009274672
0.0009296275
0.0009316997
0.0009336836
0.000935577
0.0009373783
0.0009390863
0.0009407
0.0009422185
0.0009436408
0.000944966
0.0009461931
0.0009473213
0.0009483497
0.0009492776
0.0009501042
0.0009508292
0.0009514518
0.0009519718
0.0009523886
0.0009527022
0.0009529122
0.0009456411
0.0009730892
0.00091678
0.0009190576
0.0009212328
0.0009233052
0.0009252741
0.0009271387
0.0009288982
0.0009305522
0.0009321002
0.0009335422
0.0009348781
0.000936108
0.0009372321
0.000938251
0.000939165
0.000939975
0.0009406814
0.0009412852
0.000941787
0.0009421875
0.0009424874
0.0009426871
0.0009478385
0.0009669056
0.0009125525
0.0009150478
0.0009174314
0.0009197023
0.0009218597
0.0009239024
0.0009258294
0.0009276402
0.0009293342
0.0009309112
0.0009323711
0.0009337142
0.0009349408
0.0009360514
0.0009370469
0.0009379281
0.0009386961
0.0009393518
0.0009398963
0.0009403306
0.0009406556
0.000940872
0.0009463806
0.001032795
0.0009236024
0.0009259778
0.0009282577
0.0009304411
0.0009325258
0.0009345099
0.000936392
0.0009381708
0.0009398451
0.0009414139
0.0009428758
0.0009442298
0.0009454748
0.0009466099
0.0009476342
0.0009485469
0.0009493473
0.0009500348
0.0009506089
0.0009510692
0.0009514154
0.0009516472
0.0009459891
0.001071251
0.0009306917
0.0009328113
0.0009348441
0.0009367871
0.0009386404
0.0009404035
0.0009420753
0.0009436548
0.000945141
0.0009465331
0.0009478303
0.0009490316
0.0009501364
0.0009511437
0.0009520528
0.0009528633
0.0009535744
0.0009541857
0.0009546968
0.0009551073
0.0009554168
0.0009556251
0.0009368535
0.001072223
0.0009366799
0.0009385752
0.0009403911
0.0009421283
0.0009437851
0.0009453603
0.0009468529
0.0009482624
0.0009495883
0.0009508298
0.0009519864
0.0009530574
0.000954042
0.0009549398
0.00095575
0.0009564723
0.0009571063
0.0009576514
0.0009581074
0.000958474
0.0009587508
0.0009589377
0.0009319948
0.001082479
0.0009417633
0.0009434689
0.0009451035
0.0009466651
0.0009481534
0.0009495675
0.0009509067
0.000952171
0.0009533599
0.0009544731
0.0009555099
0.0009564697
0.0009573519
0.0009581562
0.000958882
0.0009595291
0.000960097
0.0009605854
0.000960994
0.0009613226
0.0009615709
0.0009617387
0.0009317817
0.001071386
0.0009461171
0.000947658
0.0009491348
0.0009505451
0.0009518881
0.0009531629
0.0009543698
0.0009555091
0.0009565805
0.0009575836
0.0009585176
0.0009593823
0.0009601769
0.0009609014
0.0009615552
0.0009621381
0.0009626497
0.0009630898
0.0009634581
0.0009637544
0.0009639785
0.00096413
0.0009341849
0.001076084
0.0009498726
0.0009512702
0.0009526096
0.0009538875
0.0009551032
0.0009562565
0.0009573484
0.0009583792
0.0009593486
0.0009602562
0.0009611013
0.0009618837
0.0009626028
0.0009632585
0.0009638503
0.0009643782
0.0009648417
0.0009652405
0.0009655746
0.0009658434
0.0009660471
0.0009661849
0.0009376165
0.001065519
0.00095313
0.0009544052
0.0009556269
0.0009567879
0.0009578905
0.0009589369
0.000959928
0.0009608638
0.0009617439
0.0009625678
0.0009633351
0.0009640454
0.0009646985
0.0009652942
0.0009658322
0.0009663123
0.0009667342
0.0009670975
0.0009674022
0.0009676476
0.0009678342
0.0009679606
0.0009412519
0.001057921
0.0009559956
0.0009571564
0.0009582654
0.0009593214
0.0009603251
0.0009612781
0.0009621806
0.0009630329
0.0009638341
0.000964584
0.0009652822
0.0009659288
0.0009665233
0.0009670659
0.0009675562
0.000967994
0.0009683792
0.0009687112
0.0009689902
0.0009692153
0.0009693869
0.0009695037
0.0009447617
0.001041671
0.0009585089
0.0009595732
0.000960587
0.0009615519
0.0009624696
0.0009633413
0.0009641667
0.0009649457
0.0009656775
0.0009663622
0.0009669992
0.000967589
0.0009681311
0.000968626
0.0009690731
0.0009694728
0.0009698245
0.0009701282
0.0009703835
0.00097059
0.0009707478
0.0009708557
0.0009483311
0.001017709
0.000960723
0.0009617017
0.0009626354
0.0009635252
0.0009643714
0.0009651744
0.0009659339
0.00096665
0.0009673218
0.0009679499
0.0009685333
0.0009690733
0.0009695687
0.0009700211
0.000970429
0.0009707941
0.0009711146
0.0009713923
0.0009716248
0.0009718139
0.0009719574
0.0009720565
0.0009526922
0.000990908
0.0009626718
0.0009635815
0.000964451
0.00096528
0.0009660672
0.000966813
0.0009675174
0.0009681803
0.0009688012
0.0009693807
0.0009699182
0.0009704149
0.0009708697
0.0009712847
0.0009716578
0.000971992
0.000972284
0.0009725379
0.0009727488
0.0009729218
0.0009730506
0.000973141
0.0009583753
0.000970193
0.0009644065
0.0009652576
0.0009660726
0.0009668483
0.0009675843
0.00096828
0.0009689374
0.0009695548
0.0009701322
0.0009706702
0.0009711685
0.0009716283
0.0009720486
0.0009724313
0.0009727748
0.000973082
0.0009733497
0.0009735824
0.0009737745
0.0009739326
0.000974048
0.0009741301
0.0009645046
0.0009639066
0.0009659604
0.0009667539
0.0009675165
0.0009682425
0.000968932
0.0009695835
0.0009701989
0.0009707766
0.0009713164
0.0009718193
0.0009722853
0.0009727144
0.0009731065
0.0009734626
0.0009737822
0.000974067
0.0009743152
0.00097453
0.0009747074
0.0009748525
0.0009749581
0.0009750321
0.0009699658
0.0009658985
0.000967335
0.0009680773
0.0009687902
0.0009694701
0.0009701168
0.000970729
0.0009713067
0.0009718497
0.0009723575
0.0009728307
0.0009732696
0.0009736741
0.0009740433
0.0009743784
0.0009746794
0.0009749469
0.0009751805
0.0009753816
0.0009755483
0.0009756835
0.0009757828
0.0009758512
0.0009740452
0.0009654856
0.0009654069
0.0009658923
0.000966344
0.0009667621
0.0009671468
0.0009674987
0.0009678182
0.0009681064
0.0009683641
0.0009685928
0.0009687939
0.0009689695
0.00096912
0.0009692482
0.0009693562
0.0009694458
0.0009695189
0.0009695777
0.0009696234
0.0009696586
0.000969683
0.0009696997
0.0009695466
0.0009785237
0.0009795323
0.000980356
0.0009809595
0.0009814864
0.0009819271
0.0009822678
0.0009826067
0.000982879
0.0009831423
0.00098339
0.0009836231
0.0009838397
0.0009840564
0.0009842716
0.0009844386
0.0009846626
0.0009847986
0.0009848815
0.0009850559
0.000985214
0.0009853915
0.0009855542
0.0009856254
0.0009857236
0.0009858511
0.0009859424
0.0009859884
0.0009860646
0.0009795479
0.0009766718
0.0009784906
0.0009792696
0.0009799555
0.0009805555
0.0009810932
0.0009815775
0.0009820226
0.0009824371
0.0009828214
0.0009831878
0.0009835272
0.0009838511
0.0009841535
0.0009844343
0.000984703
0.0009849431
0.0009851727
0.000985387
0.0009855782
0.0009857782
0.0009859737
0.0009861308
0.0009862591
0.0009863805
0.0009864931
0.0009865814
0.0009866422
0.0009866861
0.0009799898
0.0009726207
0.0009765229
0.0009774917
0.0009783545
0.0009791273
0.0009798257
0.0009804607
0.0009810439
0.0009815836
0.0009820801
0.0009825445
0.000982971
0.0009833688
0.0009837356
0.0009840712
0.0009843851
0.0009846656
0.00098493
0.0009851748
0.0009853925
0.0009856138
0.0009858272
0.0009860018
0.0009861487
0.0009862868
0.0009864118
0.0009865116
0.0009865868
0.000986648
0.0009797553
0.0009677482
0.0009747204
0.0009759214
0.0009769965
0.0009779649
0.0009788394
0.0009796316
0.0009803513
0.0009810076
0.0009816042
0.0009821491
0.0009826446
0.0009830956
0.0009835056
0.0009838762
0.000984214
0.0009845168
0.0009847961
0.0009850515
0.0009852802
0.0009855048
0.0009857191
0.0009859004
0.0009860571
0.0009862037
0.0009863351
0.0009864434
0.0009865322
0.0009866111
0.0009795318
0.0009630124
0.0009734803
0.0009749031
0.0009761752
0.0009773161
0.0009783388
0.0009792557
0.0009800773
0.0009808135
0.0009814737
0.0009820638
0.0009825943
0.0009830677
0.0009834922
0.0009838725
0.000984211
0.0009845159
0.0009847917
0.0009850399
0.0009852649
0.0009854773
0.0009856767
0.0009858526
0.0009860085
0.000986153
0.0009862822
0.0009863931
0.0009864914
0.0009865838
0.0009793711
0.0009595382
0.0009730545
0.0009746243
0.0009760189
0.0009772587
0.0009783582
0.0009793325
0.0009801941
0.0009809552
0.0009816296
0.0009822237
0.0009827531
0.0009832199
0.0009836347
0.0009840045
0.0009843284
0.0009846214
0.0009848825
0.0009851147
0.0009853278
0.0009855213
0.0009856985
0.0009858614
0.000986009
0.0009861432
0.0009862629
0.0009863706
0.0009864726
0.0009865718
0.0009793088
0.0009577934
0.0009733164
0.0009749207
0.0009763362
0.0009775849
0.0009786837
0.0009796501
0.0009804988
0.0009812436
0.0009819003
0.000982476
0.0009829873
0.0009834364
0.0009838342
0.0009841881
0.0009844954
0.0009847734
0.0009850187
0.000985235
0.0009854351
0.0009856106
0.0009857664
0.0009859143
0.0009860505
0.0009861707
0.000986277
0.0009863776
0.0009864777
0.0009865766
0.0009793561
0.0009569001
0.0009737821
0.0009753593
0.0009767462
0.000977966
0.0009790369
0.0009799776
0.000980803
0.0009815273
0.0009821653
0.0009827248
0.0009832209
0.0009836562
0.0009840408
0.0009843817
0.0009846763
0.0009849417
0.0009851738
0.0009853768
0.0009855646
0.0009857246
0.0009858624
0.0009859963
0.0009861205
0.0009862259
0.0009863184
0.0009864099
0.0009865038
0.000986596
0.000979506
0.0009562792
0.0009742535
0.0009757925
0.0009771453
0.0009783348
0.0009793801
0.000980299
0.0009811062
0.0009818153
0.0009824394
0.0009829868
0.0009834706
0.000983894
0.0009842669
0.0009845947
0.0009848773
0.0009851303
0.0009853489
0.0009855383
0.0009857119
0.0009858558
0.0009859774
0.0009860979
0.0009862091
0.0009863
0.0009863795
0.0009864611
0.0009865453
0.0009866265
0.0009797468
0.0009557989
0.0009747133
0.0009762222
0.0009775499
0.0009787186
0.0009797474
0.0009806527
0.0009814487
0.0009821476
0.0009827611
0.0009832982
0.0009837691
0.000984179
0.0009845369
0.000984848
0.0009851159
0.0009853526
0.0009855537
0.0009857258
0.00098588
0.0009860045
0.0009861092
0.0009862144
0.0009863103
0.0009863863
0.0009864539
0.0009865247
0.0009865968
0.0009866651
0.0009800803
0.0009556521
0.0009752264
0.0009767171
0.0009780305
0.0009791878
0.0009802072
0.0009811035
0.0009818902
0.000982578
0.0009831777
0.000983698
0.0009841482
0.0009845357
0.0009848691
0.0009851557
0.0009854011
0.0009856132
0.0009857905
0.0009859399
0.0009860691
0.0009861707
0.0009862559
0.0009863419
0.0009864196
0.0009864809
0.0009865369
0.0009865959
0.0009866551
0.0009867111
0.0009805337
0.0009563471
0.0009759088
0.0009773869
0.0009786889
0.0009798346
0.0009808406
0.0009817203
0.000982486
0.0009831478
0.0009837163
0.0009842009
0.0009846119
0.00098496
0.0009852544
0.0009855049
0.0009857166
0.0009858961
0.0009860459
0.0009861691
0.000986271
0.0009863487
0.0009864117
0.0009864753
0.0009865339
0.0009865814
0.0009866261
0.0009866735
0.0009867213
0.0009867676
0.0009811616
0.0009587138
0.0009768996
0.0009783512
0.0009796227
0.0009807323
0.0009816953
0.0009825249
0.0009832335
0.0009838329
0.0009843363
0.0009847561
0.0009851062
0.0009853985
0.0009856428
0.0009858497
0.0009860237
0.0009861718
0.0009862963
0.0009863952
0.0009864726
0.000986528
0.0009865688
0.0009866109
0.0009866532
0.0009866891
0.0009867239
0.0009867619
0.0009868013
0.0009868407
0.000982031
0.0009637896
0.0009782862
0.0009796486
0.000980822
0.0009818253
0.0009826764
0.0009833926
0.0009839916
0.00098449
0.0009849044
0.0009852483
0.0009855345
0.0009857733
0.000985973
0.0009861433
0.000986288
0.0009864137
0.0009865201
0.0009866015
0.0009866618
0.0009867006
0.0009867244
0.0009867512
0.0009867824
0.0009868104
0.0009868382
0.0009868697
0.000986903
0.0009869364
0.0009831934
0.0009713884
0.0009798046
0.0009809617
0.0009819408
0.0009827675
0.0009834642
0.0009840507
0.000984544
0.0009849581
0.0009853055
0.0009855961
0.0009858395
0.0009860433
0.0009862147
0.0009863625
0.0009864899
0.000986603
0.0009867004
0.0009867749
0.0009868295
0.0009868633
0.000986881
0.0009869014
0.000986928
0.0009869524
0.0009869762
0.0009870028
0.0009870302
0.0009870565
0.0009846582
0.000971198
0.0009746234
0.000975597
0.0009764256
0.0009771296
0.0009777271
0.0009782346
0.0009786656
0.0009790316
0.0009793425
0.0009796056
0.0009798283
0.0009800166
0.0009801756
0.0009803124
0.0009804305
0.0009805352
0.0009806281
0.0009807041
0.0009807646
0.0009808087
0.0009808371
0.0009808627
0.0009808909
0.0009809162
0.0009809382
0.0009809601
0.0009809807
0.000980999
0.0009801931
0.0009694283
0.0009726845
0.0009736487
0.0009744685
0.0009751652
0.000975757
0.0009762597
0.0009766866
0.0009770489
0.0009773564
0.0009776161
0.0009778364
0.0009780216
0.0009781781
0.0009783128
0.0009784279
0.000978533
0.0009786274
0.0009787055
0.0009787695
0.0009788136
0.0009788419
0.0009788703
0.0009789001
0.0009789259
0.0009789501
0.0009789735
0.0009789939
0.0009790113
0.0009782535
0.000970932
0.0009786058
0.0009797324
0.0009806864
0.0009814928
0.0009821729
0.0009827459
0.0009832275
0.0009836316
0.0009839706
0.0009842533
0.0009844911
0.0009846885
0.0009848551
0.0009849992
0.0009851232
0.0009852388
0.00098534
0.0009854189
0.0009854785
0.0009855117
0.00098553
0.0009855553
0.0009855851
0.0009856128
0.0009856418
0.0009856713
0.0009856981
0.0009857226
0.0009834497
0.0009636749
0.0009771933
0.0009785252
0.0009796656
0.0009806355
0.0009814543
0.0009821416
0.0009827155
0.0009831932
0.000983591
0.0009839204
0.000984196
0.0009844248
0.0009846173
0.0009847828
0.0009849238
0.0009850521
0.0009851623
0.0009852474
0.0009853111
0.0009853481
0.0009853723
0.0009854038
0.0009854384
0.0009854713
0.0009855065
0.0009855425
0.0009855758
0.0009856072
0.00098204
0.0009583165
0.0009757878
0.0009772283
0.0009784849
0.0009795758
0.0009805163
0.0009813207
0.000982003
0.0009825763
0.0009830563
0.0009834549
0.0009837881
0.0009840659
0.0009842997
0.0009844999
0.0009846691
0.0009848183
0.000984945
0.0009850459
0.000985124
0.0009851754
0.0009852161
0.0009852619
0.0009853066
0.0009853477
0.000985391
0.0009854349
0.0009854755
0.0009855136
0.0009809018
0.0009556375
0.0009747415
0.0009762165
0.0009775137
0.0009786526
0.0009796485
0.000980515
0.0009812644
0.0009819073
0.0009824562
0.0009829204
0.0009833137
0.0009836455
0.0009839271
0.0009841687
0.0009843745
0.000984553
0.0009847024
0.0009848263
0.000984926
0.0009849974
0.0009850596
0.0009851257
0.0009851855
0.0009852378
0.0009852912
0.0009853453
0.0009853952
0.0009854407
0.0009800338
0.0009547666
0.0009740199
0.0009755073
0.0009768173
0.0009779711
0.0009789854
0.000979875
0.0009806526
0.0009813289
0.0009819154
0.0009824207
0.0009828563
0.0009832294
0.0009835516
0.0009838291
0.0009840689
0.0009842795
0.000984454
0.0009846026
0.0009847278
0.0009848213
0.0009849053
0.0009849934
0.0009850713
0.0009851369
0.0009852016
0.0009852676
0.0009853292
0.0009853843
0.0009793988
0.0009548274
0.0009734865
0.0009749897
0.0009763123
0.0009774768
0.000978501
0.0009794014
0.000980191
0.0009808824
0.0009814868
0.0009820131
0.0009824734
0.0009828713
0.0009832207
0.0009835233
0.0009837865
0.0009840235
0.0009842214
0.0009843918
0.0009845408
0.0009846563
0.0009847602
0.0009848678
0.0009849641
0.0009850442
0.0009851201
0.0009851979
0.0009852725
0.0009853395
0.0009789426
0.00095529
0.0009730259
0.000974556
0.0009759008
0.0009770837
0.0009781223
0.0009790354
0.0009798356
0.0009805381
0.0009811544
0.0009816929
0.0009821687
0.0009825812
0.0009829477
0.0009832676
0.0009835455
0.0009838004
0.0009840173
0.0009842057
0.0009843735
0.0009845087
0.0009846305
0.0009847543
0.0009848672
0.0009849622
0.000985049
0.0009851369
0.0009852238
0.0009853032
0.0009786171
0.0009558984
0.0009725585
0.0009741257
0.0009755033
0.0009767153
0.0009777776
0.0009787112
0.0009795281
0.0009802451
0.000980875
0.0009814253
0.0009819144
0.0009823389
0.000982718
0.0009830515
0.0009833414
0.0009836091
0.0009838411
0.0009840453
0.0009842282
0.000984381
0.0009845202
0.0009846579
0.0009847856
0.0009848956
0.0009849929
0.0009850888
0.0009851852
0.0009852755
0.0009783933
0.0009567824
0.0009720963
0.0009736887
0.0009750932
0.0009763334
0.0009774223
0.0009783813
0.0009792209
0.0009799581
0.0009806066
0.0009811732
0.000981678
0.0009821171
0.0009825102
0.0009828574
0.0009831612
0.0009834414
0.0009836874
0.0009839074
0.0009841051
0.0009842765
0.0009844345
0.0009845853
0.0009847261
0.0009848506
0.0009849579
0.0009850592
0.0009851612
0.0009852583
0.0009782623
0.0009586237
0.0009718798
0.000973431
0.0009748085
0.0009760355
0.0009771207
0.0009780846
0.0009789345
0.0009796859
0.0009803506
0.0009809349
0.0009814568
0.0009819139
0.0009823238
0.0009826865
0.0009830074
0.0009833002
0.0009835606
0.0009837975
0.0009840116
0.0009842051
0.0009843837
0.0009845462
0.0009846976
0.0009848344
0.0009849497
0.0009850533
0.0009851558
0.0009852541
0.0009782257
0.0009621218
0.0009723396
0.0009737438
0.000974999
0.000976127
0.0009771351
0.0009780421
0.0009788523
0.0009795789
0.0009802293
0.0009808102
0.000981332
0.0009817967
0.0009822149
0.0009825863
0.0009829199
0.0009832186
0.0009834888
0.0009837394
0.0009839687
0.0009841852
0.0009843827
0.0009845526
0.0009847091
0.000984853
0.0009849722
0.0009850738
0.0009851712
0.0009852641
0.0009782822
0.0009667042
0.0009735403
0.0009747327
0.0009758021
0.0009767657
0.0009776346
0.0009784245
0.0009791402
0.000979793
0.0009803852
0.0009809266
0.0009814157
0.0009818627
0.0009822663
0.0009826279
0.0009829582
0.0009832467
0.0009835131
0.000983766
0.0009840022
0.000984234
0.0009844416
0.0009846105
0.0009847634
0.0009849059
0.000985023
0.0009851181
0.0009852053
0.0009852867
0.0009784167
0.0009713544
0.0009752462
0.000976219
0.000977091
0.0009778695
0.0009785761
0.0009792187
0.0009798091
0.0009803546
0.0009808564
0.0009813262
0.0009817528
0.0009821542
0.0009825169
0.0009828463
0.0009831509
0.0009834099
0.0009836542
0.0009838921
0.0009841201
0.0009843501
0.000984553
0.0009847109
0.0009848509
0.0009849828
0.000985092
0.0009851776
0.0009852516
0.0009853174
0.0009785968
0.0009751986
0.000977087
0.000977887
0.0009785926
0.0009792114
0.0009797695
0.000980269
0.0009807334
0.0009811615
0.0009815613
0.0009819413
0.0009822882
0.0009826226
0.0009829243
0.0009832024
0.0009834608
0.0009836766
0.0009838838
0.0009840907
0.0009842934
0.0009845016
0.0009846859
0.0009848267
0.0009849481
0.0009850639
0.0009851629
0.0009852392
0.0009852998
0.0009853491
0.0009787779
0.0009771283
0.0009781928
0.0009789787
0.0009796284
0.0009801636
0.0009805794
0.0009809857
0.0009812884
0.0009816009
0.0009818657
0.0009821217
0.0009823707
0.0009825853
0.0009828288
0.0009829966
0.0009832203
0.0009833836
0.0009835337
0.0009837652
0.0009838902
0.0009840101
0.0009841772
0.0009843307
0.0009844664
0.0009845478
0.0009846186
0.0009847173
0.0009847997
0.0009848187
0.0009783354
0.0009702432
0.0009748304
0.0009756617
0.0009762963
0.000976787
0.0009771369
0.0009774833
0.0009777051
0.0009779496
0.0009781418
0.0009783295
0.0009785211
0.0009786752
0.000978878
0.0009789994
0.000979196
0.000979337
0.0009794622
0.000979682
0.0009797758
0.0009798642
0.0009800207
0.000980173
0.000980306
0.0009803761
0.0009804404
0.0009805424
0.0009806252
0.0009806335
0.0009742411
0.0009704813
0.0009750946
0.0009760048
0.0009766027
0.0009771055
0.0009775001
0.0009777796
0.0009780622
0.0009782684
0.0009784718
0.0009786599
0.0009788391
0.0009790027
0.0009791738
0.00097935
0.0009794702
0.0009796692
0.0009797618
0.0009797977
0.0009799581
0.0009800957
0.0009802581
0.0009804139
0.0009804649
0.0009805516
0.000980677
0.0009807645
0.0009808046
0.0009808868
0.0009745222
)
;

boundaryField
{
    top
    {
        type            zeroGradient;
    }
    bottom
    {
        type            zeroGradient;
    }
    frontAndBack
    {
        type            empty;
    }
    fsiWall
    {
        type            zeroGradient;
    }
    inlet
    {
        type            zeroGradient;
    }
    outlet
    {
        type            zeroGradient;
    }
    cylinder
    {
        type            zeroGradient;
    }
}


// ************************************************************************* //
