/*--------------------------------*- C++ -*----------------------------------*\
| =========                 |                                                 |
| \\      /  F ield         | OpenFOAM: The Open Source CFD Toolbox           |
|  \\    /   O peration     | Version:  2.1.x                                 |
|   \\  /    A nd           | Web:      www.OpenFOAM.org                      |
|    \\/     M anipulation  |                                                 |
\*---------------------------------------------------------------------------*/
FoamFile
{
    version     2.0;
    format      ascii;
    class       volVectorField;
    location    "1";
    object      U;
}
// * * * * * * * * * * * * * * * * * * * * * * * * * * * * * * * * * * * * * //

dimensions      [0 1 -1 0 0 0 0];

internalField   nonuniform List<vector> 
2172
(
(2.841242 2.465652 -2.129809e-19)
(2.862975 2.27474 0)
(3.27314 1.859922 -4.585919e-20)
(1.781508 1.267868 2.00885e-20)
(-0.4855879 0.1588975 -1.953498e-20)
(-0.3108009 0.03883974 -1.145539e-18)
(-0.3538802 0.214314 5.042155e-19)
(-0.08995991 0.03511924 -1.316796e-18)
(3.268862 1.429211 0)
(3.554815 1.446341 0)
(3.942578 0.9641435 -1.220333e-19)
(3.760703 0.9375875 -1.775721e-19)
(2.499167 0.5422934 -1.405177e-20)
(0.6063456 0.0334629 4.694734e-19)
(-0.3555758 0.1100394 1.256671e-18)
(-0.3039366 0.1201984 -1.149371e-18)
(3.044449 1.298265 -1.975889e-19)
(3.428964 1.531046 8.351633e-20)
(3.684269 1.251287 -6.040728e-20)
(4.031808 1.076254 3.008494e-19)
(3.892543 0.8435436 0)
(2.607408 0.3481105 7.573479e-19)
(0.7877711 0.1227519 -1.114551e-18)
(-0.2761603 0.1330896 -3.454077e-19)
(2.859149 1.03403 0)
(3.135852 1.203919 0)
(3.504916 1.173414 1.963505e-20)
(3.731104 0.9956403 -1.999891e-20)
(4.146575 0.9179089 -7.596842e-21)
(3.861934 0.5979791 -6.72935e-19)
(2.52478 0.2577215 0)
(0.9385628 0.1753062 -1.227849e-18)
(2.792226 0.8776738 -6.566025e-20)
(2.909987 0.9423756 -6.387557e-20)
(3.317688 1.002027 -2.089292e-20)
(3.5553 0.8615897 -8.126208e-20)
(3.850705 0.7701288 0)
(4.221502 0.6522209 0)
(3.826416 0.3697597 -2.301744e-19)
(2.412218 0.1939776 2.969713e-19)
(2.574251 0.7474398 2.378763e-19)
(2.745909 0.8058898 -6.98679e-20)
(3.032966 0.848597 0)
(3.438926 0.7896818 3.891898e-21)
(3.629303 0.6287305 -3.797912e-21)
(3.905487 0.5491084 -2.166109e-19)
(4.395344 0.3803353 4.894638e-19)
(3.447629 0.2046103 -2.209608e-19)
(2.305634 0.5574487 -2.563893e-19)
(2.543889 0.6667495 -1.379077e-20)
(2.788339 0.6938343 1.447244e-20)
(3.147341 0.7004806 2.809332e-21)
(3.616321 0.5494414 1.028631e-19)
(3.46377 0.4303392 -2.90644e-19)
(4.298803 0.2912805 3.791578e-19)
(3.938811 0.178427 3.685395e-19)
(2.163813 0.4365671 0)
(2.271416 0.5513892 -5.524384e-20)
(2.682911 0.5938045 -4.300735e-21)
(2.747062 0.5897111 0)
(3.532784 0.4878086 -9.725094e-20)
(3.279226 0.3584329 2.682862e-19)
(3.895567 0.1977671 1.570612e-19)
(3.9791 0.1118823 -4.931523e-19)
(2.109716 0.3337396 -1.453326e-19)
(2.000911 0.4356188 5.151247e-20)
(2.603627 0.5162465 -1.390145e-21)
(2.478808 0.4898311 1.539521e-21)
(3.235653 0.3990009 -1.503831e-21)
(3.248575 0.3133815 0)
(3.507607 0.1235024 -1.051305e-19)
(3.792263 0.0672406 -1.27727e-19)
(2.026823 0.2621001 1.368268e-19)
(1.832411 0.3577329 0)
(2.443749 0.4384072 5.023817e-21)
(2.409671 0.4262633 1.166913e-21)
(2.875801 0.3054411 -5.493248e-20)
(3.154219 0.2600499 0)
(3.250015 0.07460176 3.375337e-19)
(3.51691 0.01558403 1.167583e-19)
(1.775981 0.1741004 0)
(1.71203 0.2961568 -4.959428e-20)
(2.171377 0.3479692 -6.482594e-21)
(2.381999 0.3701103 0)
(2.605348 0.2393533 9.558239e-20)
(2.986178 0.1935776 7.443036e-20)
(3.048268 0.043167 0)
(3.276366 -0.044265 -4.273003e-19)
(1.423041 0.09923447 0)
(1.584728 0.2447903 5.268164e-20)
(1.850106 0.256187 2.468482e-20)
(2.267357 0.306721 1.351751e-21)
(2.420607 0.1846773 -7.108881e-20)
(2.788819 0.1391969 -5.560356e-20)
(2.866895 0.003437095 7.463233e-20)
(3.033453 -0.07133381 -1.787451e-19)
(1.030542 0.03466708 5.066861e-20)
(1.407904 0.18645 -7.580909e-20)
(1.543874 0.1754783 0)
(2.061674 0.2271995 6.63797e-23)
(2.236928 0.1350523 1.672968e-20)
(2.583519 0.08012988 -6.324229e-20)
(2.658489 -0.01511277 8.171243e-20)
(2.804993 -0.1059212 -7.95264e-20)
(0.7102266 -0.0106324 2.200713e-21)
(1.189532 0.1191634 6.892879e-20)
(1.278521 0.1080924 -1.478666e-20)
(1.799381 0.1450078 -8.81914e-23)
(2.016333 0.08108044 -1.636451e-20)
(2.329733 0.03728953 0)
(2.401034 -0.05188049 -7.216197e-20)
(2.47989 -0.09634627 0)
(0.4532983 -0.02768966 0)
(0.8938349 0.04954097 1.127959e-20)
(0.9935281 0.04152236 -1.553701e-21)
(1.435678 0.05947639 2.279802e-22)
(1.661792 0.03213785 -4.239578e-22)
(1.88907 0.008548357 1.398931e-20)
(1.914631 -0.02995158 -2.556654e-21)
(1.865538 -0.09682312 -7.307338e-20)
(0.2230623 -0.03408398 4.57271e-20)
(0.4320629 0.01972623 -5.815925e-20)
(0.5146621 0.0209106 -1.674865e-21)
(0.7362783 0.0155961 5.967348e-22)
(0.8612312 -0.007149198 2.07724e-20)
(0.9349763 -0.02017766 -9.519702e-20)
(0.8899907 -0.03354775 5.848226e-20)
(0.7543634 -0.02128713 0)
(0.7784265 -0.009867415 0)
(0.9361417 -0.03084596 2.981429e-20)
(1.104664 -0.0635438 -3.139003e-20)
(1.259083 -0.09493931 -7.098968e-20)
(1.418593 -0.1413333 7.517314e-20)
(1.542181 -0.1804901 0)
(1.671631 -0.2431622 9.597979e-20)
(1.801058 -0.2938515 -3.44475e-19)
(1.971905 -0.3872593 1.169979e-19)
(2.151679 -0.4579294 -3.307335e-19)
(2.311236 -0.5855945 1.603768e-19)
(2.467943 -0.6892251 0)
(2.604548 -0.9107211 2.674407e-19)
(2.785985 -1.166517 1.910291e-20)
(2.651889 -1.399018 -3.615469e-19)
(1.914239 -2.227936 0)
(1.884166 -0.01990614 -8.932978e-21)
(1.998596 -0.06320242 1.036329e-20)
(2.119746 -0.1041707 0)
(2.222959 -0.1501716 0)
(2.343262 -0.1974288 6.774332e-20)
(2.441488 -0.250574 -1.318037e-19)
(2.562862 -0.3116421 7.7493e-20)
(2.65421 -0.3766548 3.037685e-19)
(2.765755 -0.4633249 2.110186e-19)
(2.828802 -0.5456415 -3.353067e-20)
(2.891919 -0.6794155 -4.934896e-19)
(2.893809 -0.7905057 3.489268e-19)
(2.839197 -1.013727 0)
(2.667131 -1.148815 0)
(2.106103 -1.478242 0)
(1.434423 -2.100312 4.990211e-19)
(2.601809 -0.01500715 -2.785507e-20)
(2.642206 -0.05004359 3.404321e-20)
(2.679733 -0.07918782 -7.039499e-20)
(2.701681 -0.1155565 -4.708679e-21)
(2.72249 -0.1449754 -6.992679e-20)
(2.7203 -0.1869165 -9.600531e-20)
(2.718232 -0.220396 1.182399e-20)
(2.677882 -0.2723399 0)
(2.636765 -0.313282 1.562879e-19)
(2.528382 -0.3785304 -1.709862e-19)
(2.416458 -0.4322701 7.011095e-20)
(2.183176 -0.5112686 0)
(1.938644 -0.5955637 0)
(1.463079 -0.6717192 0)
(1.048371 -1.002713 -3.076786e-19)
(0.7981165 -1.47002 -8.98058e-19)
(2.958846 -0.00582968 2.378602e-20)
(2.962881 -0.01690757 -2.974098e-20)
(2.964597 -0.02848804 3.730477e-20)
(2.949677 -0.03940422 6.403145e-20)
(2.929804 -0.05132888 -2.454256e-20)
(2.889886 -0.0636814 -7.034861e-21)
(2.849043 -0.07711069 0)
(2.78235 -0.09210044 3.946756e-20)
(2.717707 -0.10684 -8.965859e-20)
(2.612851 -0.1249706 5.122542e-20)
(2.514597 -0.1398647 1.054685e-19)
(2.348491 -0.1630803 2.004786e-20)
(2.201355 -0.18241 -2.548552e-20)
(1.919417 -0.2330624 0)
(1.693177 -0.3521156 2.787277e-19)
(1.051569 -0.6415615 0)
(2.960134 0.008585387 0)
(2.967272 0.02541303 3.292373e-20)
(2.969733 0.04178441 0)
(2.958407 0.057773 0)
(2.939162 0.07349438 0)
(2.904098 0.09050476 7.030639e-21)
(2.863153 0.1067218 0)
(2.802488 0.12623 -3.88569e-20)
(2.736716 0.1423025 8.829692e-20)
(2.640028 0.1650493 -5.04579e-20)
(2.541209 0.1790473 -1.027907e-19)
(2.38708 0.2074873 6.450737e-20)
(2.244741 0.2230143 -3.667711e-19)
(1.975301 0.2764882 2.68946e-19)
(1.775702 0.3874066 -1.24646e-19)
(1.094642 0.5405991 2.584659e-19)
(2.605054 0.01649114 3.814892e-20)
(2.654568 0.054457 -3.246822e-20)
(2.695416 0.08664996 3.151359e-20)
(2.725968 0.1261066 -3.340486e-20)
(2.749757 0.1584096 0)
(2.755694 0.2033768 9.133482e-20)
(2.756281 0.2392025 -1.838009e-19)
(2.720785 0.2937209 -1.254086e-19)
(2.682109 0.3359663 -1.412366e-20)
(2.5696 0.4022079 1.642434e-19)
(2.46328 0.4555907 -6.538566e-20)
(2.208001 0.5303924 2.26114e-19)
(1.993181 0.612997 1.801393e-19)
(1.456893 0.6635687 0)
(1.162851 1.014485 0)
(0.9175202 1.421233 3.44742e-19)
(1.890868 0.01985473 -4.660815e-20)
(2.014211 0.06455886 2.806491e-20)
(2.149004 0.1053358 -1.995869e-20)
(2.257891 0.1532823 4.687155e-20)
(2.39381 0.2002174 -4.975141e-20)
(2.493192 0.2557483 1.209719e-19)
(2.632906 0.3162639 2.040078e-19)
(2.719522 0.383913 1.42678e-19)
(2.855354 0.4701048 -2.718494e-20)
(2.904556 0.5543376 1.822823e-19)
(2.990724 0.6866752 1.708522e-19)
(2.955393 0.796904 -2.124686e-19)
(2.913416 1.021604 0)
(2.706582 1.153116 0)
(2.048627 1.457807 0)
(1.502188 2.050171 3.765771e-19)
(0.7873024 0.01001257 0)
(0.9495254 0.03216864 2.530259e-20)
(1.135522 0.06564444 -8.49555e-20)
(1.295662 0.09900418 6.136993e-20)
(1.479786 0.146335 -6.493197e-20)
(1.607354 0.1864651 0)
(1.753302 0.2482667 -1.048858e-19)
(1.868651 0.2961203 -1.210135e-19)
(2.053271 0.3885982 -1.420117e-19)
(2.236499 0.4575786 -5.616654e-20)
(2.425008 0.5860819 -1.633744e-19)
(2.576815 0.6761735 3.343906e-19)
(2.677133 0.8914315 0)
(2.886914 1.151323 -8.698841e-20)
(2.715838 1.430465 3.469463e-19)
(1.991349 2.232455 -5.202569e-21)
(0.2168835 0.03076738 0)
(0.4246231 -0.02033655 2.250219e-20)
(0.5171132 -0.02193826 -2.833605e-20)
(0.7521406 -0.01539855 5.382384e-21)
(0.8785646 0.008590228 0)
(0.938122 0.02111841 0)
(0.8779912 0.03316952 0)
(0.7145568 0.01884585 -1.777765e-19)
(0.4514561 0.02416193 0)
(0.8770036 -0.04733902 2.7312e-20)
(1.000542 -0.04243542 -4.381882e-21)
(1.472667 -0.05836277 0)
(1.713247 -0.02795556 2.91949e-20)
(1.927461 -0.003034593 -1.17903e-20)
(1.936349 0.03819336 -7.67762e-20)
(1.847117 0.1029891 -3.965469e-20)
(0.7150881 0.004737483 6.711429e-20)
(1.160299 -0.113999 -5.154263e-20)
(1.291108 -0.1117976 2.881377e-20)
(1.839321 -0.1439691 -4.603236e-21)
(2.071758 -0.07444561 -2.348363e-20)
(2.384992 -0.02593205 -1.24542e-20)
(2.443572 0.06467014 -3.713071e-21)
(2.502902 0.1091046 3.258214e-19)
(1.043842 -0.03994509 -7.042717e-20)
(1.359019 -0.1774557 2.85474e-20)
(1.562953 -0.1829068 9.326624e-21)
(2.085174 -0.2247212 -4.152489e-21)
(2.274714 -0.126132 -2.213008e-20)
(2.630683 -0.06684715 0)
(2.697211 0.03232205 -9.046641e-20)
(2.833539 0.1245492 2.7086e-19)
(1.415559 -0.100804 6.52266e-20)
(1.511836 -0.2337475 -7.578749e-20)
(1.867286 -0.2677952 -2.397678e-20)
(2.256549 -0.3000057 0)
(2.441018 -0.1753918 9.024668e-20)
(2.82402 -0.1227985 0)
(2.895282 0.0161533 -9.962754e-20)
(3.058141 0.09290812 9.573983e-20)
(1.726598 -0.1688962 -7.829931e-20)
(1.632517 -0.2879181 0)
(2.167545 -0.3602101 3.294302e-21)
(2.335938 -0.3606439 -3.310605e-21)
(2.632469 -0.2326959 -3.221942e-20)
(3.014477 -0.1763919 -1.685933e-20)
(3.071185 -0.01951667 2.156009e-19)
(3.298838 0.06613942 0)
(1.914978 -0.2472475 1.145467e-20)
(1.768123 -0.3571064 7.606063e-20)
(2.398761 -0.4466847 0)
(2.362214 -0.4206614 -9.816777e-21)
(2.927061 -0.3047293 0)
(3.165193 -0.2390197 2.045738e-19)
(3.271225 -0.04864148 -2.293932e-19)
(3.539668 0.01796937 -9.284339e-21)
(1.982389 -0.316979 -7.451841e-20)
(1.96812 -0.4453603 1.536339e-20)
(2.526027 -0.5211735 1.457684e-22)
(2.481633 -0.4979788 8.756053e-21)
(3.278259 -0.3948372 1.093134e-19)
(3.225649 -0.2891035 -4.847951e-19)
(3.545412 -0.09246666 4.268015e-19)
(3.804869 -0.03177697 4.572042e-19)
(2.062826 -0.426962 -7.720194e-20)
(2.227639 -0.5613777 1.523767e-19)
(2.60484 -0.6028773 1.235528e-21)
(2.789824 -0.6036192 2.640847e-21)
(3.510441 -0.4726412 -8.964515e-20)
(3.258626 -0.3320356 5.550406e-19)
(3.962668 -0.1694395 -3.029462e-19)
(3.96133 -0.0782549 -3.645884e-19)
(2.254733 -0.5550176 1.141323e-19)
(2.460207 -0.6729255 8.568483e-20)
(2.752004 -0.7114118 -1.097515e-20)
(3.153254 -0.7049353 6.900171e-21)
(3.547014 -0.5291924 0)
(3.523348 -0.4129262 -6.84082e-19)
(4.338215 -0.2621229 0)
(3.832419 -0.1359474 8.189295e-19)
(2.493835 -0.7325314 -2.073662e-19)
(2.628527 -0.8138198 5.142472e-20)
(3.012955 -0.8624137 -6.8669e-21)
(3.371696 -0.7839723 1.367381e-20)
(3.619498 -0.6240848 0)
(3.996585 -0.5309475 3.984556e-19)
(4.295916 -0.3291392 4.945785e-19)
(3.210302 -0.1570282 5.071183e-19)
(2.660884 -0.8579073 2.114014e-19)
(2.828348 -0.9795745 -2.598579e-20)
(3.27174 -1.007903 1.731675e-20)
(3.499289 -0.8759544 -1.870081e-20)
(3.927769 -0.7753745 -2.57747e-19)
(4.181607 -0.5989072 -7.243721e-19)
(3.545589 -0.2992726 -4.075241e-19)
(2.076685 -0.1538341 1.603104e-20)
(2.759654 -1.036543 -3.764052e-19)
(3.09487 -1.252195 -1.03622e-19)
(3.443523 -1.171322 0)
(3.757503 -1.032912 1.291748e-19)
(4.15492 -0.8775626 6.163166e-19)
(3.626881 -0.5107388 6.427484e-19)
(2.170174 -0.1998418 3.391694e-19)
(0.6498042 -0.1521533 -3.108795e-19)
(3.008162 -1.350648 3.612785e-19)
(3.339758 -1.539972 -1.190522e-19)
(3.670557 -1.262398 0)
(4.032594 -1.092552 3.659926e-20)
(3.730664 -0.7497758 -4.86104e-19)
(2.286533 -0.2802148 3.070377e-19)
(0.5820422 -0.1111518 -5.692721e-19)
(-0.2547251 -0.1448732 1.037921e-18)
(3.297689 -1.50758 -1.588063e-19)
(3.467305 -1.410753 9.108253e-20)
(3.978463 -1.045558 0)
(3.60241 -0.9067143 -2.105313e-19)
(2.250367 -0.4378768 -1.327207e-19)
(0.41539 -0.03271874 1.218811e-19)
(-0.3466459 -0.1220539 4.317496e-19)
(-0.297547 -0.1118233 0)
(2.743616 -2.511803 2.712336e-19)
(2.758769 -2.258962 0)
(3.155853 -1.882242 3.750702e-19)
(1.42937 -1.072175 -1.892193e-19)
(-0.4555595 -0.1015375 -8.166799e-19)
(-0.3088347 -0.08679137 1.031815e-18)
(-0.3114762 -0.2012374 -2.569793e-19)
(-0.08627849 -0.04693699 4.373408e-19)
(-0.1010421 0.01731788 9.806813e-19)
(-0.1672386 0.02257526 0)
(-0.2131631 0.02299352 0)
(-0.2577976 0.02376579 0)
(-0.3014741 0.0272535 0)
(-0.3465239 0.03238532 0)
(-0.3942236 0.03790311 4.745022e-19)
(-0.4436238 0.04275867 -4.74649e-19)
(-0.492442 0.0465727 -4.601394e-19)
(-0.5375328 0.04884278 4.602557e-19)
(-0.5755376 0.0493068 0)
(-0.6042134 0.04838248 4.21199e-19)
(-0.6216081 0.04616232 -8.23581e-19)
(-0.6258539 0.04322649 4.023695e-19)
(-0.614297 0.03930732 0)
(-0.5868822 0.03324655 1.63444e-19)
(-0.5437631 0.02575196 -1.634596e-19)
(-0.4854492 0.01679844 0)
(-0.4130885 0.007527713 0)
(-0.327946 -0.001498825 5.177284e-20)
(-0.2339997 -0.009282985 -5.177492e-20)
(-0.130454 -0.01714938 0)
(-0.0228133 -0.02409409 0)
(0.08450245 -0.04060715 0)
(-0.3540448 0.06578621 1.013127e-18)
(-0.4412002 0.07276943 0)
(-0.481909 0.06327793 1.00962e-18)
(-0.5260117 0.06153076 -1.010291e-18)
(-0.5603693 0.06130643 0)
(-0.5916578 0.06178526 0)
(-0.615591 0.0601271 0)
(-0.6316436 0.05555155 4.817518e-19)
(-0.6373286 0.04745059 -4.819954e-19)
(-0.6309601 0.0350408 0)
(-0.6113605 0.0180078 4.466987e-19)
(-0.5800557 -0.002427535 -4.468806e-19)
(-0.5327289 -0.0241653 -4.093395e-19)
(-0.4706334 -0.04650663 4.094796e-19)
(-0.3938027 -0.06779913 1.801992e-19)
(-0.3035378 -0.08834706 -1.802493e-19)
(-0.2010206 -0.106709 0)
(-0.0855105 -0.1239652 0)
(0.03824308 -0.1373464 0)
(0.1770064 -0.1496687 0)
(0.3135485 -0.1572248 0)
(0.4662535 -0.1649463 0)
(0.6070242 -0.1683903 0)
(0.7640378 -0.1756822 0)
(-0.3287077 0.1022323 1.060964e-18)
(-0.3130702 0.1119474 0)
(-0.2989085 0.09150037 -1.043385e-18)
(-0.2912111 0.08466931 1.04413e-18)
(-0.2717979 0.07767154 0)
(-0.244693 0.06951547 0)
(-0.2042811 0.0559819 0)
(-0.1557641 0.03747429 0)
(-0.0970279 0.01592204 0)
(-0.02776693 -0.007154183 0)
(0.05178681 -0.03172569 0)
(0.139084 -0.05940582 4.415402e-19)
(0.2380399 -0.08913663 -4.417158e-19)
(0.3474826 -0.1203152 0)
(0.4640725 -0.1512469 0)
(0.5908889 -0.1824334 1.699375e-19)
(0.7188668 -0.2102021 -1.69982e-19)
(0.8597192 -0.2369732 0)
(0.9917212 -0.2573159 0)
(1.141756 -0.2766311 0)
(1.273562 -0.2883576 0)
(1.423528 -0.3005941 -2.184389e-20)
(1.555214 -0.305848 2.184534e-20)
(1.694688 -0.3126219 0)
(0.4535754 0.08861867 1.100907e-18)
(0.4533342 0.0255059 1.084476e-18)
(0.4741628 0.009793005 -1.085339e-18)
(0.5091098 0.005685911 1.073775e-18)
(0.5575315 -0.006203063 -5.417999e-19)
(0.6197115 -0.02432575 -5.719728e-21)
(0.6962617 -0.04629352 -5.277453e-19)
(0.7815945 -0.07139625 0)
(0.874908 -0.1001161 4.990067e-19)
(0.976138 -0.1323758 -4.99275e-19)
(1.084099 -0.1666143 0)
(1.198557 -0.2019203 0)
(1.315585 -0.236543 0)
(1.439507 -0.2712134 4.000788e-19)
(1.560566 -0.3030805 -2.137943e-19)
(1.689157 -0.3339232 -1.43968e-20)
(1.809931 -0.3597916 -1.721371e-19)
(1.938121 -0.3837004 1.428226e-19)
(2.054809 -0.4011378 -1.428531e-19)
(2.178119 -0.4160887 5.779706e-20)
(2.287778 -0.4250813 -5.971296e-21)
(2.40227 -0.4308026 -2.85461e-20)
(2.50327 -0.4335798 -1.277533e-20)
(2.605178 -0.4315656 -1.041341e-20)
(2.126265 0.1309549 0)
(2.058276 0.08167159 0)
(2.018706 0.03369895 0)
(2.001892 -0.009731526 1.091474e-18)
(2.004057 -0.05063052 -5.522946e-19)
(2.026852 -0.09127994 -7.518937e-21)
(2.068386 -0.1315607 -1.057458e-18)
(2.124963 -0.1711121 5.245275e-19)
(2.192211 -0.2092874 5.003794e-19)
(2.268109 -0.2469328 -1.587081e-20)
(2.349047 -0.283483 -4.850593e-19)
(2.434714 -0.3193682 0)
(2.520913 -0.3534375 0)
(2.609275 -0.385888 3.977351e-19)
(2.694268 -0.4152879 -2.122876e-19)
(2.780081 -0.4416712 -1.375597e-20)
(2.859003 -0.4639356 -1.719613e-19)
(2.938507 -0.4819122 1.446524e-19)
(3.008101 -0.4954512 -1.446861e-19)
(3.079009 -0.5039391 5.992106e-20)
(3.137612 -0.5088569 -5.993053e-20)
(3.198825 -0.5083344 2.487195e-20)
(3.245875 -0.506389 -1.347092e-20)
(3.296747 -0.4985032 -1.122522e-20)
(3.358187 0.1022015 -1.161206e-18)
(3.319896 0.06060873 1.092705e-18)
(3.287638 0.01707778 0)
(3.268148 -0.0322885 1.064999e-18)
(3.262759 -0.08362132 -1.065886e-18)
(3.269356 -0.1339045 0)
(3.285914 -0.181569 0)
(3.309632 -0.2264251 0)
(3.338341 -0.2685507 0)
(3.369904 -0.3083808 0)
(3.402768 -0.3461073 0)
(3.435922 -0.3815895 -4.320517e-19)
(3.467661 -0.4146246 4.322683e-19)
(3.49817 -0.4444643 0)
(3.524895 -0.4709434 1.809988e-19)
(3.549838 -0.4930386 -1.810673e-19)
(3.568902 -0.5110926 0)
(3.58681 -0.5239305 0)
(3.597011 -0.5327388 0)
(3.607865 -0.5360761 -6.171521e-20)
(3.609289 -0.5362402 6.172595e-20)
(3.614033 -0.5311656 0)
(3.607468 -0.5244707 0)
(3.607263 -0.5128704 0)
(3.935707 0.05374495 0)
(3.920696 0.01046123 1.040819e-18)
(3.89657 -0.0277885 -1.041865e-18)
(3.87829 -0.07318741 1.00127e-18)
(3.868341 -0.1238023 -5.076778e-19)
(3.864216 -0.1749482 -5.929169e-21)
(3.863165 -0.2233562 -9.715128e-19)
(3.862278 -0.2678861 4.824896e-19)
(3.860399 -0.3086876 4.604997e-19)
(3.856382 -0.3460981 -4.608144e-19)
(3.850092 -0.3806021 0)
(3.841209 -0.4119528 0)
(3.829478 -0.4402447 0)
(3.815145 -0.4646561 3.701922e-19)
(3.79737 -0.4853769 -1.955922e-19)
(3.777438 -0.5014183 -1.035441e-20)
(3.753574 -0.5134741 -1.645492e-19)
(3.728763 -0.5205178 1.447711e-19)
(3.699628 -0.5239036 -1.448118e-19)
(3.671543 -0.5224731 6.359728e-20)
(3.638554 -0.5182916 -3.87275e-21)
(3.609193 -0.509859 -3.16138e-20)
(3.573838 -0.4999564 -1.484064e-20)
(3.545007 -0.486426 -1.298091e-20)
(4.00778 -0.009945828 0)
(3.998886 -0.05077743 0)
(3.975153 -0.08261523 0)
(3.953878 -0.1192966 9.286844e-19)
(3.939087 -0.1615742 -4.709109e-19)
(3.927847 -0.2057828 -3.866627e-21)
(3.916222 -0.2482549 -9.064798e-19)
(3.901243 -0.2871282 7.590079e-21)
(3.882119 -0.3221102 8.7729e-19)
(3.858712 -0.3534129 -4.336615e-19)
(3.831721 -0.3814939 0)
(3.801615 -0.4062902 0)
(3.768895 -0.427938 0)
(3.734026 -0.4459209 3.568783e-19)
(3.697037 -0.4604424 -1.869999e-19)
(3.658776 -0.4708986 -8.355237e-21)
(3.618743 -0.4779189 -1.61847e-19)
(3.578637 -0.4808893 1.459562e-19)
(3.537039 -0.4809475 -1.460012e-19)
(3.496931 -0.4773386 6.586081e-20)
(3.455276 -0.4716921 -3.192131e-21)
(3.41692 -0.4629406 -3.280325e-20)
(3.376354 -0.4531856 -1.560543e-20)
(3.341066 -0.4408744 -1.391716e-20)
(3.824325 -0.07878917 0)
(3.80989 -0.1250386 9.275023e-19)
(3.781672 -0.1512886 -9.286237e-19)
(3.758905 -0.1766009 8.75609e-19)
(3.742167 -0.2054461 -4.435183e-19)
(3.727724 -0.2369505 -3.023981e-21)
(3.711729 -0.2684633 -8.579515e-19)
(3.691707 -0.2979416 6.315963e-21)
(3.6671 -0.3244979 8.339556e-19)
(3.638243 -0.3479809 -1.124179e-20)
(3.606129 -0.3685998 -4.018647e-19)
(3.571575 -0.3864176 0)
(3.535315 -0.4015516 0)
(3.49783 -0.4137829 3.491522e-19)
(3.459376 -0.4232442 -5.172192e-19)
(3.420425 -0.4296607 3.292243e-19)
(3.380915 -0.4334572 -1.613393e-19)
(3.341694 -0.434354 1.485642e-19)
(3.302227 -0.4331207 -1.486145e-19)
(3.264007 -0.4293412 6.846026e-20)
(3.22559 -0.42411 -2.66913e-21)
(3.189484 -0.4167317 -3.414696e-20)
(3.152738 -0.4086224 -1.640771e-20)
(3.119475 -0.3987023 -1.483984e-20)
(3.516843 -0.07679476 0)
(3.513343 -0.1179707 8.535629e-19)
(3.506048 -0.1531186 -8.546978e-19)
(3.4924 -0.1794725 8.454354e-19)
(3.476532 -0.2026959 -4.276017e-19)
(3.460312 -0.2263127 -3.885224e-21)
(3.442713 -0.2503906 -8.273929e-19)
(3.422153 -0.2736346 6.035958e-21)
(3.398038 -0.2949549 8.045659e-19)
(3.370661 -0.3138787 -3.986628e-19)
(3.340814 -0.3303575 0)
(3.30929 -0.3444708 0)
(3.276673 -0.3563277 0)
(3.243366 -0.365911 3.463789e-19)
(3.209503 -0.3733151 -3.465916e-19)
(3.175356 -0.3784688 1.624889e-19)
(3.140859 -0.3816112 -1.625691e-19)
(3.10648 -0.3826556 1.521614e-19)
(3.07194 -0.3820346 -1.522181e-19)
(3.038049 -0.3795571 7.125311e-20)
(3.004052 -0.3758488 -2.260044e-21)
(2.971296 -0.3705136 -3.557457e-20)
(2.938192 -0.3643941 -1.722329e-20)
(2.90701 -0.3568125 -1.574332e-20)
(3.284695 -0.1363188 -5.99985e-21)
(3.270975 -0.1577806 1.714819e-18)
(3.250865 -0.1732547 -8.517818e-19)
(3.234128 -0.1907566 0)
(3.218987 -0.2094083 0)
(3.203257 -0.2282284 0)
(3.185739 -0.2467991 0)
(3.165833 -0.2645988 0)
(3.143345 -0.2809906 0)
(3.118518 -0.2955487 0)
(3.091808 -0.3081081 3.73754e-19)
(3.06377 -0.3187032 -7.392139e-19)
(3.03473 -0.3274181 3.654281e-19)
(3.004984 -0.3343267 0)
(2.974511 -0.3395014 0)
(2.943509 -0.3429717 0)
(2.911824 -0.3448493 0)
(2.879811 -0.3451478 0)
(2.847204 -0.344064 0)
(2.814604 -0.3415586 -7.43042e-20)
(2.781472 -0.3379262 1.467268e-19)
(2.748747 -0.3330087 -7.241717e-20)
(2.715392 -0.3272293 0)
(2.68291 -0.3202553 0)
(3.010575 -0.1259213 0)
(3.006985 -0.1516831 8.120907e-19)
(3.003142 -0.1763909 -8.134213e-19)
(2.991873 -0.1941022 8.178699e-19)
(2.976102 -0.2083831 -4.132334e-19)
(2.958303 -0.2218148 -4.392118e-21)
(2.93897 -0.2349713 -8.003341e-19)
(2.917868 -0.2475524 3.98256e-19)
(2.894779 -0.2590849 3.871967e-19)
(2.869789 -0.2692336 -3.876335e-19)
(2.84308 -0.2778303 0)
(2.814963 -0.2848745 0)
(2.785554 -0.290416 0)
(2.755053 -0.2945451 0)
(2.723362 -0.2973153 0)
(2.690669 -0.2987947 1.694622e-19)
(2.656779 -0.2990226 -1.695653e-19)
(2.622045 -0.2980599 1.623616e-19)
(2.58618 -0.2959604 -1.624361e-19)
(2.549773 -0.2927772 7.775923e-20)
(2.512309 -0.2885922 -1.651713e-21)
(2.474689 -0.2834334 -7.614918e-20)
(2.43599 -0.2774362 1.827216e-20)
(2.397603 -0.2705805 -1.768651e-20)
(2.781788 -0.1548573 9.674873e-19)
(2.762851 -0.1612816 0)
(2.740148 -0.167391 0)
(2.719778 -0.1773272 8.178797e-19)
(2.699482 -0.1883715 -4.131874e-19)
(2.677446 -0.1988954 -3.918866e-21)
(2.653247 -0.2085886 -4.033936e-19)
(2.626979 -0.2174278 -3.946306e-19)
(2.598698 -0.2252764 7.850787e-19)
(2.568465 -0.2319577 -5.550738e-21)
(2.536316 -0.2373521 -3.853137e-19)
(2.502378 -0.24144 0)
(2.466683 -0.2442553 0)
(2.429365 -0.2458727 0)
(2.390371 -0.2463484 -1.782217e-19)
(2.349889 -0.2457569 3.535714e-19)
(2.307809 -0.2441307 -1.753328e-19)
(2.264489 -0.2415461 1.691783e-19)
(2.219727 -0.2380174 -1.692653e-19)
(2.174128 -0.2336422 8.164639e-20)
(2.12724 -0.2284154 -1.443701e-21)
(2.080038 -0.2224778 -4.082116e-20)
(2.031572 -0.2157999 -2.005289e-20)
(1.983454 -0.2085963 -1.881115e-20)
(2.402546 -0.131354 0)
(2.382829 -0.146654 0)
(2.361445 -0.1592014 0)
(2.333868 -0.1664152 8.319425e-19)
(2.30198 -0.1713324 -4.203308e-19)
(2.267517 -0.1756312 -8.238026e-19)
(2.231039 -0.179542 4.154879e-21)
(2.192609 -0.1828576 4.070815e-19)
(2.152181 -0.1853681 3.989723e-19)
(2.109741 -0.1869357 -3.995404e-19)
(2.065322 -0.187495 0)
(2.019011 -0.1870403 3.860311e-19)
(1.970901 -0.1856161 -5.210761e-21)
(1.921136 -0.1832909 -3.816635e-19)
(1.869817 -0.1801465 0)
(1.817155 -0.176258 1.829675e-19)
(1.763256 -0.1716978 -1.831082e-19)
(1.708456 -0.166529 1.776427e-19)
(1.652815 -0.1608106 -1.777455e-19)
(1.596856 -0.1546099 8.618852e-20)
(1.540436 -0.1479761 -1.315283e-21)
(1.484425 -0.1410038 -4.310433e-20)
(1.428138 -0.1337069 -2.122753e-20)
(1.37326 -0.1262424 -2.015927e-20)
(1.74045 -0.09498753 9.810626e-19)
(1.702071 -0.09347943 8.681189e-19)
(1.66102 -0.09495414 -8.70141e-19)
(1.617566 -0.09770187 8.592403e-19)
(1.57198 -0.1000357 -4.339477e-19)
(1.524821 -0.1015963 -3.54197e-21)
(1.476453 -0.1024385 -4.252635e-19)
(1.426992 -0.1025361 -4.187551e-19)
(1.376446 -0.1017876 8.351217e-19)
(1.324858 -0.1001136 -4.163179e-19)
(1.27234 -0.09749962 0)
(1.219062 -0.09399593 4.046228e-19)
(1.165233 -0.0897079 -4.051482e-19)
(1.111095 -0.08477844 0)
(1.05691 -0.07937527 -1.955002e-19)
(1.002986 -0.07366931 3.88718e-19)
(0.9496373 -0.06783081 -1.931946e-19)
(0.8972253 -0.06200751 1.879598e-19)
(0.8460579 -0.05634055 -1.880828e-19)
(0.7965237 -0.05093223 0)
(0.7488231 -0.0458936 9.022607e-20)
(0.7034477 -0.04125118 -4.574626e-20)
(0.6601252 -0.03709507 -4.451932e-20)
(0.6200756 -0.03329953 0)
(0.6083275 -0.01181951 0)
(0.5737672 -0.01129494 0)
(0.5407085 -0.01189671 -8.984294e-19)
(0.5082141 -0.01278043 9.005558e-19)
(0.4759234 -0.01292079 0)
(0.4441372 -0.01200138 4.436512e-19)
(0.4131724 -0.01017856 -4.445452e-19)
(0.3831971 -0.007705688 0)
(0.3543269 -0.004797596 0)
(0.3266982 -0.001649098 0)
(0.3004585 0.001532785 0)
(0.2757347 0.004531301 4.264053e-19)
(0.2526188 0.007145666 -4.269663e-19)
(0.2311629 0.009221081 0)
(0.2113794 0.01066602 0)
(0.1932432 0.01145371 0)
(0.1766924 0.01161018 0)
(0.1616378 0.01120159 0)
(0.1479639 0.0103175 0)
(0.1355487 0.009065864 0)
(0.1242418 0.007550641 0)
(0.1139139 0.005886442 0)
(0.1043404 0.004136265 0)
(0.09589979 0.002564015 0)
(0.5650157 0.004059825 2.080818e-18)
(0.5302092 0.003027245 -9.778452e-19)
(0.4971398 0.003364105 0)
(0.4648463 0.003857406 0)
(0.4331508 0.003560727 0)
(0.4023718 0.002318356 0)
(0.3727524 0.000367523 -4.696684e-19)
(0.344396 -0.002008173 4.70648e-19)
(0.317372 -0.004570832 0)
(0.2917634 -0.00710498 -4.579595e-19)
(0.2676507 -0.009399125 4.587366e-19)
(0.2450905 -0.01126083 0)
(0.2241104 -0.01254853 0)
(0.2047124 -0.01319578 0)
(0.1868761 -0.01321439 -2.164058e-19)
(0.1705481 -0.01267994 2.166359e-19)
(0.155637 -0.01170245 0)
(0.1420313 -0.01039832 2.080772e-19)
(0.1296053 -0.008876645 -2.082226e-19)
(0.1182345 -0.007237411 0)
(0.1077877 -0.005561532 0)
(0.09816014 -0.003924727 0)
(0.08918672 -0.002357588 0)
(0.0812346 -0.001085712 0)
(1.701672 0.09872033 1.054474e-18)
(1.657985 0.09678885 -1.877686e-18)
(1.611644 0.09740825 9.371001e-19)
(1.562919 0.09886649 -4.607558e-19)
(1.512288 0.09979931 4.705462e-21)
(1.460309 0.09998699 4.581583e-19)
(1.407308 0.0994823 0)
(1.353399 0.0982464 4.45241e-19)
(1.298642 0.09618855 -4.460868e-19)
(1.243149 0.09325828 0)
(1.187118 0.08948206 4.314398e-19)
(1.130805 0.08496262 -5.766289e-21)
(1.074499 0.07986082 -4.269558e-19)
(1.018507 0.07436955 0)
(0.9631515 0.06868378 0)
(0.9087729 0.06297625 2.022067e-19)
(0.8557198 0.05738863 -4.018027e-19)
(0.804353 0.05202805 3.961879e-19)
(0.7549865 0.0469791 -9.982422e-20)
(0.7079338 0.04229153 -9.699518e-20)
(0.6633492 0.0380118 9.426054e-20)
(0.6215375 0.0341288 -9.429485e-20)
(0.5822295 0.03068582 -2.291762e-20)
(0.546291 0.02753325 2.278136e-20)
(2.408983 0.1415771 -1.037657e-18)
(2.383051 0.1552531 8.973027e-19)
(2.354854 0.1658376 -8.993462e-19)
(2.321036 0.1715659 4.461001e-19)
(2.283368 0.1753044 -4.470273e-19)
(2.243197 0.1784654 -4.377058e-19)
(2.200927 0.181205 5.418661e-21)
(2.156574 0.1833288 5.573203e-21)
(2.110103 0.1846338 4.290242e-19)
(2.061544 0.1849799 -4.179719e-19)
(2.011004 0.1843014 4.185876e-19)
(1.958651 0.1826051 -4.068031e-19)
(1.904669 0.1799496 4.073187e-19)
(1.849252 0.1764195 -1.975662e-19)
(1.79257 0.172102 3.923756e-19)
(1.73484 0.16708 -1.947859e-19)
(1.676252 0.1614244 0)
(1.617125 0.1552031 0)
(1.557648 0.1484769 0)
(1.498282 0.1413238 0)
(1.439062 0.1338112 0)
(1.380708 0.1260522 0)
(1.3228 0.1181085 0)
(1.266751 0.1101381 0)
(2.797976 0.1711443 0)
(2.775762 0.1770872 0)
(2.750007 0.1827256 0)
(2.726014 0.1916597 4.384142e-19)
(2.701749 0.2013262 -4.392241e-19)
(2.675666 0.2103951 4.297536e-19)
(2.647419 0.2186972 -8.552136e-19)
(2.616978 0.2261936 4.254133e-19)
(2.584312 0.2326878 0)
(2.549447 0.2379721 -4.069713e-19)
(2.512486 0.2419205 4.075034e-19)
(2.473596 0.2445362 0)
(2.432911 0.245863 0)
(2.390564 0.2459956 0)
(2.346598 0.24498 -1.865561e-19)
(2.301136 0.2429066 1.867144e-19)
(2.254191 0.2397878 0)
(2.206004 0.235726 -1.765289e-19)
(2.156567 0.2307117 8.997125e-20)
(2.106308 0.2248838 1.599188e-21)
(2.055057 0.2182166 8.513281e-20)
(2.003524 0.210903 0)
(1.95114 0.2029074 0)
(1.899166 0.1944736 0)
(3.028984 0.1482867 -1.005285e-18)
(3.021864 0.1733737 0)
(3.013485 0.1963494 -8.803977e-19)
(2.998169 0.2122418 8.81923e-19)
(2.97908 0.2248791 0)
(2.958414 0.2368312 0)
(2.936393 0.2486103 -4.223862e-19)
(2.912553 0.25982 4.229819e-19)
(2.886594 0.2698912 0)
(2.858543 0.2784873 -4.018965e-19)
(2.828671 0.2854541 8.46903e-21)
(2.79727 0.2908648 3.943246e-19)
(2.764589 0.2947667 3.774694e-19)
(2.730734 0.2973031 -5.624682e-19)
(2.695776 0.2984738 3.654193e-19)
(2.659709 0.298404 -4.117397e-21)
(2.622584 0.2970586 -1.767522e-19)
(2.584444 0.2945824 0)
(2.545372 0.2909451 0)
(2.505509 0.2862963 0)
(2.464881 0.2806394 0)
(2.42376 0.2740737 -3.874119e-20)
(2.381957 0.2667163 3.874795e-20)
(2.340034 0.2585117 0)
(3.298343 0.1597752 1.053383e-18)
(3.281552 0.182181 -1.720461e-20)
(3.258424 0.197618 -9.145017e-19)
(3.238163 0.213909 0)
(3.219554 0.2309396 0)
(3.200797 0.2483455 0)
(3.180617 0.2656186 0)
(3.158122 0.2819921 -4.183304e-19)
(3.133076 0.296674 4.188298e-19)
(3.105619 0.3093339 0)
(3.076382 0.3198484 0)
(3.045778 0.3284118 0)
(3.014375 0.3350606 3.719273e-19)
(2.982189 0.3399901 -3.722354e-19)
(2.94957 0.3431507 0)
(2.916269 0.3447138 0)
(2.882687 0.3446452 0)
(2.848484 0.3431287 0)
(2.814203 0.3402164 0)
(2.779435 0.3360157 0)
(2.74478 0.3307312 7.497255e-20)
(2.709808 0.3242328 -7.498999e-20)